# vtk DataFile Version 3.1
vtk output
ASCII
DATASET POLYDATA
POINTS 4260 FLOAT
2.83277e-16          -1    -3.14159
-0.104528 -0.994522  -3.14159
 0.104528 -0.994522  -3.14159
-0.207912 -0.978148  -3.14159
 0.207912 -0.978148  -3.14159
-0.309017 -0.951057  -3.14159
 0.309017 -0.951057  -3.14159
-0.406737 -0.913545  -3.14159
 0.406737 -0.913545  -3.14159
     -0.5 -0.866025  -3.14159
      0.5 -0.866025  -3.14159
-0.587785 -0.809017  -3.14159
 0.587785 -0.809017  -3.14159
-0.669131 -0.743145  -3.14159
 0.669131 -0.743145  -3.14159
-0.743145 -0.669131  -3.14159
 0.743145 -0.669131  -3.14159
-0.809017 -0.587785  -3.14159
 0.809017 -0.587785  -3.14159
-0.866025      -0.5  -3.14159
0.866025     -0.5 -3.14159
-0.913545 -0.406737  -3.14159
 0.913545 -0.406737  -3.14159
-0.951057 -0.309017  -3.14159
 0.951057 -0.309017  -3.14159
-0.978148 -0.207912  -3.14159
 0.978148 -0.207912  -3.14159
-0.994522 -0.104528  -3.14159
 0.994522 -0.104528  -3.14159
          -1 -5.66554e-16     -3.14159
       1        0 -3.14159
-0.994522  0.104528  -3.14159
0.994522 0.104528 -3.14159
-0.978148  0.207912  -3.14159
0.978148 0.207912 -3.14159
-0.951057  0.309017  -3.14159
0.951057 0.309017 -3.14159
-0.913545  0.406737  -3.14159
0.913545 0.406737 -3.14159
-0.866025       0.5  -3.14159
0.866025      0.5 -3.14159
-0.809017  0.587785  -3.14159
0.809017 0.587785 -3.14159
-0.743145  0.669131  -3.14159
0.743145 0.669131 -3.14159
-0.669131  0.743145  -3.14159
0.669131 0.743145 -3.14159
-0.587785  0.809017  -3.14159
0.587785 0.809017 -3.14159
    -0.5 0.866025 -3.14159
     0.5 0.866025 -3.14159
-0.406737  0.913545  -3.14159
0.406737 0.913545 -3.14159
-0.309017  0.951057  -3.14159
0.309017 0.951057 -3.14159
-0.207912  0.978148  -3.14159
0.207912 0.978148 -3.14159
-0.104528  0.994522  -3.14159
0.104528 0.994522 -3.14159
-1.83697e-16            1     -3.14159
-0.052336  -0.99863   -3.0509
0.052336 -0.99863  -3.0509
-0.156434 -0.987688   -3.0509
 0.156434 -0.987688   -3.0509
-0.258819 -0.965926   -3.0509
 0.258819 -0.965926   -3.0509
-0.358368  -0.93358   -3.0509
0.358368 -0.93358  -3.0509
 -0.45399 -0.891007   -3.0509
  0.45399 -0.891007   -3.0509
-0.544639 -0.838671   -3.0509
 0.544639 -0.838671   -3.0509
 -0.62932 -0.777146   -3.0509
  0.62932 -0.777146   -3.0509
-0.707107 -0.707107   -3.0509
 0.707107 -0.707107   -3.0509
-0.777146  -0.62932   -3.0509
0.777146 -0.62932  -3.0509
-0.838671 -0.544639   -3.0509
 0.838671 -0.544639   -3.0509
-0.891007  -0.45399   -3.0509
0.891007 -0.45399  -3.0509
 -0.93358 -0.358368   -3.0509
  0.93358 -0.358368   -3.0509
-0.965926 -0.258819   -3.0509
 0.965926 -0.258819   -3.0509
-0.987688 -0.156434   -3.0509
 0.987688 -0.156434   -3.0509
 -0.99863 -0.052336   -3.0509
  0.99863 -0.052336   -3.0509
-0.99863 0.052336  -3.0509
 0.99863 0.052336  -3.0509
-0.987688  0.156434   -3.0509
0.987688 0.156434  -3.0509
-0.965926  0.258819   -3.0509
0.965926 0.258819  -3.0509
-0.93358 0.358368  -3.0509
 0.93358 0.358368  -3.0509
-0.891007   0.45399   -3.0509
0.891007  0.45399  -3.0509
-0.838671  0.544639   -3.0509
0.838671 0.544639  -3.0509
-0.777146   0.62932   -3.0509
0.777146  0.62932  -3.0509
-0.707107  0.707107   -3.0509
0.707107 0.707107  -3.0509
-0.62932 0.777146  -3.0509
 0.62932 0.777146  -3.0509
-0.544639  0.838671   -3.0509
0.544639 0.838671  -3.0509
-0.45399 0.891007  -3.0509
 0.45399 0.891007  -3.0509
-0.358368   0.93358   -3.0509
0.358368  0.93358  -3.0509
-0.258819  0.965926   -3.0509
0.258819 0.965926  -3.0509
-0.156434  0.987688   -3.0509
0.156434 0.987688  -3.0509
-0.052336   0.99863   -3.0509
0.052336  0.99863  -3.0509
6.12323e-17          -1    -2.96021
-0.104528 -0.994522  -2.96021
 0.104528 -0.994522  -2.96021
-0.207912 -0.978148  -2.96021
 0.207912 -0.978148  -2.96021
-0.309017 -0.951057  -2.96021
 0.309017 -0.951057  -2.96021
-0.406737 -0.913545  -2.96021
 0.406737 -0.913545  -2.96021
     -0.5 -0.866025  -2.96021
      0.5 -0.866025  -2.96021
-0.587785 -0.809017  -2.96021
 0.587785 -0.809017  -2.96021
-0.669131 -0.743145  -2.96021
 0.669131 -0.743145  -2.96021
-0.743145 -0.669131  -2.96021
 0.743145 -0.669131  -2.96021
-0.809017 -0.587785  -2.96021
 0.809017 -0.587785  -2.96021
-0.866025      -0.5  -2.96021
0.866025     -0.5 -2.96021
-0.913545 -0.406737  -2.96021
 0.913545 -0.406737  -2.96021
-0.951057 -0.309017  -2.96021
 0.951057 -0.309017  -2.96021
-0.978148 -0.207912  -2.96021
 0.978148 -0.207912  -2.96021
-0.994522 -0.104528  -2.96021
 0.994522 -0.104528  -2.96021
          -1 -5.66554e-16     -2.96021
          1 2.77556e-17    -2.96021
-0.994522  0.104528  -2.96021
0.994522 0.104528 -2.96021
-0.978148  0.207912  -2.96021
0.978148 0.207912 -2.96021
-0.951057  0.309017  -2.96021
0.951057 0.309017 -2.96021
-0.913545  0.406737  -2.96021
0.913545 0.406737 -2.96021
-0.866025       0.5  -2.96021
0.866025      0.5 -2.96021
-0.809017  0.587785  -2.96021
0.809017 0.587785 -2.96021
-0.743145  0.669131  -2.96021
0.743145 0.669131 -2.96021
-0.669131  0.743145  -2.96021
0.669131 0.743145 -2.96021
-0.587785  0.809017  -2.96021
0.587785 0.809017 -2.96021
    -0.5 0.866025 -2.96021
     0.5 0.866025 -2.96021
-0.406737  0.913545  -2.96021
0.406737 0.913545 -2.96021
-0.309017  0.951057  -2.96021
0.309017 0.951057 -2.96021
-0.207912  0.978148  -2.96021
0.207912 0.978148 -2.96021
-0.104528  0.994522  -2.96021
0.104528 0.994522 -2.96021
-1.83697e-16            1     -2.96021
-0.052336  -0.99863  -2.86952
0.052336 -0.99863 -2.86952
-0.156434 -0.987688  -2.86952
 0.156434 -0.987688  -2.86952
-0.258819 -0.965926  -2.86952
 0.258819 -0.965926  -2.86952
-0.358368  -0.93358  -2.86952
0.358368 -0.93358 -2.86952
 -0.45399 -0.891007  -2.86952
  0.45399 -0.891007  -2.86952
-0.544639 -0.838671  -2.86952
 0.544639 -0.838671  -2.86952
 -0.62932 -0.777146  -2.86952
  0.62932 -0.777146  -2.86952
-0.707107 -0.707107  -2.86952
 0.707107 -0.707107  -2.86952
-0.777146  -0.62932  -2.86952
0.777146 -0.62932 -2.86952
-0.838671 -0.544639  -2.86952
 0.838671 -0.544639  -2.86952
-0.891007  -0.45399  -2.86952
0.891007 -0.45399 -2.86952
 -0.93358 -0.358368  -2.86952
  0.93358 -0.358368  -2.86952
-0.965926 -0.258819  -2.86952
 0.965926 -0.258819  -2.86952
-0.987688 -0.156434  -2.86952
 0.987688 -0.156434  -2.86952
 -0.99863 -0.052336  -2.86952
  0.99863 -0.052336  -2.86952
-0.99863 0.052336 -2.86952
 0.99863 0.052336 -2.86952
-0.987688  0.156434  -2.86952
0.987688 0.156434 -2.86952
-0.965926  0.258819  -2.86952
0.965926 0.258819 -2.86952
-0.93358 0.358368 -2.86952
 0.93358 0.358368 -2.86952
-0.891007   0.45399  -2.86952
0.891007  0.45399 -2.86952
-0.838671  0.544639  -2.86952
0.838671 0.544639 -2.86952
-0.777146   0.62932  -2.86952
0.777146  0.62932 -2.86952
-0.707107  0.707107  -2.86952
0.707107 0.707107 -2.86952
-0.62932 0.777146 -2.86952
 0.62932 0.777146 -2.86952
-0.544639  0.838671  -2.86952
0.544639 0.838671 -2.86952
-0.45399 0.891007 -2.86952
 0.45399 0.891007 -2.86952
-0.358368   0.93358  -2.86952
0.358368  0.93358 -2.86952
-0.258819  0.965926  -2.86952
0.258819 0.965926 -2.86952
-0.156434  0.987688  -2.86952
0.156434 0.987688 -2.86952
-0.052336   0.99863  -2.86952
0.052336  0.99863 -2.86952
6.12323e-17          -1    -2.77883
-0.104528 -0.994522  -2.77883
 0.104528 -0.994522  -2.77883
-0.207912 -0.978148  -2.77883
 0.207912 -0.978148  -2.77883
-0.309017 -0.951057  -2.77883
 0.309017 -0.951057  -2.77883
-0.406737 -0.913545  -2.77883
 0.406737 -0.913545  -2.77883
     -0.5 -0.866025  -2.77883
      0.5 -0.866025  -2.77883
-0.587785 -0.809017  -2.77883
 0.587785 -0.809017  -2.77883
-0.669131 -0.743145  -2.77883
 0.669131 -0.743145  -2.77883
-0.743145 -0.669131  -2.77883
 0.743145 -0.669131  -2.77883
-0.809017 -0.587785  -2.77883
 0.809017 -0.587785  -2.77883
-0.866025      -0.5  -2.77883
0.866025     -0.5 -2.77883
-0.913545 -0.406737  -2.77883
 0.913545 -0.406737  -2.77883
-0.951057 -0.309017  -2.77883
 0.951057 -0.309017  -2.77883
-0.978148 -0.207912  -2.77883
 0.978148 -0.207912  -2.77883
-0.994522 -0.104528  -2.77883
 0.994522 -0.104528  -2.77883
          -1 -1.22465e-16     -2.77883
          1 5.55112e-17    -2.77883
-0.994522  0.104528  -2.77883
0.994522 0.104528 -2.77883
-0.978148  0.207912  -2.77883
0.978148 0.207912 -2.77883
-0.951057  0.309017  -2.77883
0.951057 0.309017 -2.77883
-0.913545  0.406737  -2.77883
0.913545 0.406737 -2.77883
-0.866025       0.5  -2.77883
0.866025      0.5 -2.77883
-0.809017  0.587785  -2.77883
0.809017 0.587785 -2.77883
-0.743145  0.669131  -2.77883
0.743145 0.669131 -2.77883
-0.669131  0.743145  -2.77883
0.669131 0.743145 -2.77883
-0.587785  0.809017  -2.77883
0.587785 0.809017 -2.77883
    -0.5 0.866025 -2.77883
     0.5 0.866025 -2.77883
-0.406737  0.913545  -2.77883
0.406737 0.913545 -2.77883
-0.309017  0.951057  -2.77883
0.309017 0.951057 -2.77883
-0.207912  0.978148  -2.77883
0.207912 0.978148 -2.77883
-0.104528  0.994522  -2.77883
0.104528 0.994522 -2.77883
-1.83697e-16            1     -2.77883
-0.052336  -0.99863  -2.68814
0.052336 -0.99863 -2.68814
-0.156434 -0.987688  -2.68814
 0.156434 -0.987688  -2.68814
-0.258819 -0.965926  -2.68814
 0.258819 -0.965926  -2.68814
-0.358368  -0.93358  -2.68814
0.358368 -0.93358 -2.68814
 -0.45399 -0.891007  -2.68814
  0.45399 -0.891007  -2.68814
-0.544639 -0.838671  -2.68814
 0.544639 -0.838671  -2.68814
 -0.62932 -0.777146  -2.68814
  0.62932 -0.777146  -2.68814
-0.707107 -0.707107  -2.68814
 0.707107 -0.707107  -2.68814
-0.777146  -0.62932  -2.68814
0.777146 -0.62932 -2.68814
-0.838671 -0.544639  -2.68814
 0.838671 -0.544639  -2.68814
-0.891007  -0.45399  -2.68814
0.891007 -0.45399 -2.68814
 -0.93358 -0.358368  -2.68814
  0.93358 -0.358368  -2.68814
-0.965926 -0.258819  -2.68814
 0.965926 -0.258819  -2.68814
-0.987688 -0.156434  -2.68814
 0.987688 -0.156434  -2.68814
 -0.99863 -0.052336  -2.68814
  0.99863 -0.052336  -2.68814
-0.99863 0.052336 -2.68814
 0.99863 0.052336 -2.68814
-0.987688  0.156434  -2.68814
0.987688 0.156434 -2.68814
-0.965926  0.258819  -2.68814
0.965926 0.258819 -2.68814
-0.93358 0.358368 -2.68814
 0.93358 0.358368 -2.68814
[...]
POINT_DATA 4260
SCALARS Field double
LOOKUP_TABLE default
1.89454
0.315576
2.49842
-1.42704
1.81763
-2.43702
0.202266
-2.19471
-1.51706
-0.823363
-2.4564
0.973372
-2.13345
2.27207
-0.714188
2.40504
1.07209
1.30277
2.30713
-0.470181
2.35668
-2.00374
1.19551
-2.51046
-0.579816
-1.72982
-2.05663
-0.061312
-2.47612
1.63927
-1.62298
2.49945
0.0646576
2.07845
1.71929
0.592199
2.49036
-1.19676
1.98179
-2.37044
0.45445
-2.32764
-1.30693
-1.09134
-2.3969
0.703332
-2.25552
2.13453
-0.955165
2.46822
0.83621
1.5345
2.19757
-0.186179
2.42918
-1.80906
1.41181
-2.50042
-0.332223
-1.90613
0.334999
1.90658
-1.40974
2.49729
-2.43025
1.80411
-2.20156
0.183303
-0.840132
-1.53185
0.955211
-2.45968
2.26152
-2.12379
2.40698
-0.696745
1.31564
1.0882
-0.453438
2.31351
-1.9919
2.34994
-2.50942
1.17894
-1.73961
-0.597912
-0.0762301
-2.0671
1.62755
-2.47367
2.4974
-1.60882
2.08719
0.0834193
0.606942
1.73322
-1.18417
2.49251
-2.36718
1.97122
-2.33597
0.436709
-1.10728
-1.32262
0.688013
-2.40233
2.12808
-2.24772
2.47452
-0.937934
1.55089
0.854182
-0.167688
2.20707
-1.79777
2.42519
-2.50221
1.39607
-1.9204
-0.352074
0.354408
-1.39266
1.9188
-2.42388
2.49647
-2.20894
1.79098
-0.857485
0.164746
0.936574
-1.54632
2.25074
-2.4627
2.40905
-2.11395
1.32903
-0.67919
-0.435901
1.10438
-1.97923
2.31992
-2.50779
2.34314
-1.74929
1.16221
-0.0915951
-0.616232
1.61495
-2.07784
2.4943
-2.47146
2.09505
-1.59484
0.621277
0.102049
-1.17142
1.74705
-2.36327
2.49456
-2.34339
1.96053
-1.12238
0.418855
0.673211
-1.33834
2.12171
-2.40765
2.48049
-2.23961
1.56669
-0.920245
-0.149842
0.872667
-1.78703
2.21706
-2.50438
2.42158
-1.93482
1.38054
-0.371898
-1.37592
0.373612
-2.41796
1.93098
-2.21682
2.49576
-0.875284
1.77806
0.917638
0.146465
2.23991
-1.56047
2.41142
-2.46543
1.34301
-2.10383
-0.417619
-0.661373
-1.96587
1.12077
-2.50579
2.32646
-1.75909
2.33638
-0.107577
1.14541
1.60139
-0.63469
2.49019
-2.08875
2.10221
-2.46942
0.635441
-1.581
-1.15825
0.120547
-2.35848
1.7607
-2.34979
2.49636
-1.13667
1.94953
0.658788
0.400703
2.11519
-1.35425
2.48588
-2.41297
1.58173
-2.23132
-0.132706
-0.902192
-1.77679
0.891624
-2.50673
2.22754
-1.94916
2.41846
-0.391431
1.36543
-1.35958
-2.41244
0.392478
-2.22506
1.9429
-0.893348
2.49491
0.898594
1.76514
2.22921
0.128302
2.41416
-1.5744
1.35757
-2.46788
-0.398679
-2.09341
-1.952
-0.643272
-2.50363
1.13741
-1.76919
2.33318
-0.124292
2.32972
1.58686
1.12867
2.4852
-0.653145
2.10888
-2.09965
0.649682
-2.46738
-1.14443
-1.5672
-2.35268
0.138936
-2.35517
1.77413
-1.15023
2.49782
0.644541
1.93813
2.10828
0.382146
2.4905
-1.37049
1.59588
-2.41847
-0.116286
-2.22304
-1.76688
-0.884
-2.50901
0.910862
-1.96311
2.23843
-0.410403
2.41583
1.3509
-2.4072
-1.34361
-2.23346
0.410925
-0.911452
1.95443
0.879655
2.49377
2.21876
1.75207
2.41729
0.110132
1.37263
-1.58824
-0.379245
-2.47015
-1.93781
-2.08279
-2.50147
-0.624977
-1.7797
1.15423
-0.141768
2.34006
1.57145
2.32322
2.47949
1.11208
2.11527
-0.671434
0.664245
-2.11041
-1.12977
-2.46521
-2.34581
-1.55333
-2.35957
0.157284
-1.16325
1.78741
0.630238
2.499
2.10076
1.92633
2.49418
0.363165
1.60908
-1.38713
-0.100501
-2.42433
-1.75713
-2.21502
-2.51098
-0.865953
-1.97641
0.9301
-0.42862
2.24954
1.33703
2.41367
-2.40208
-2.2418
-1.32795
-0.929348
0.428946
0.861001
1.96553
2.20863
2.49227
2.42078
1.73877
1.38804
0.0918637
-0.359525
-1.60209
-1.92347
-2.47241
-2.49944
-2.07213
-1.79066
-0.606637
-0.159933
1.17111
1.5553
2.34707
2.47327
2.31691
2.12162
1.09571
0.679305
-0.689468
-1.11419
-2.12091
-2.33785
-2.46283
-2.36311
-1.5393
-1.17594
0.175722
0.615644
1.80067
2.09243
2.50006
2.4968
1.91432
1.62137
0.343842
-0.0852199
-1.40421
-1.74734
-2.43068
-2.5124
-2.20752
-1.98887
-0.848359
-0.445985
0.949049
1.32382
2.26062
2.41182
-2.24989
-2.39695
-0.946842
-1.31248
0.842777
0.446627
2.19888
1.97626
2.42453
2.49048
1.4036
1.72529
-0.339744
0.0734728
-1.9092
-1.61605
-2.49763
-2.47481
-1.80203
-2.06166
-0.178651
-0.588439
1.53861
1.18795
2.46675
2.35415
2.12809
2.31077
0.694959
1.07959
-1.09766
-0.707262
-2.32891
-2.13118
-2.36599
-2.46023
-1.18853
-1.52505
0.600519
0.1944
2.08311
1.81415
2.49834
2.50126
1.63283
1.90232
-0.0702482
0.32436
-1.73726
-1.42165
-2.51308
-2.43757
-2.0004
-2.20066
-0.4625
-0.831446
1.31113
0.967446
2.41008
2.27142
-2.25762
-0.963821
-2.3917
0.825086
-1.29714
2.1895
0.464091
2.42842
1.9868
1.41911
2.48858
-0.320154
1.71175
-1.89519
0.0550007
-2.49611
-1.6302
-1.81372
-2.47751
-0.197728
-2.05151
1.52161
-0.570509
2.46011
1.20467
2.13477
2.36128
0.711226
2.30477
-1.08027
1.06362
-2.31915
-0.724941
-2.3684
-2.14137
-1.20124
-2.45748
0.584664
-1.51053
2.07271
0.213469
2.49881
1.82811
1.6436
2.5029
-0.055329
1.89059
-1.72662
0.304922
-2.51283
-1.4393
-2.01094
-2.44492
-0.478287
-2.19447
1.29873
-0.815286
2.40817
0.985107
2.28168
-0.980273
-2.26503
0.807936
-2.38636
2.18048
-1.28184
2.43236
0.481498
1.43437
1.99739
-0.300985
2.48682
-1.88159
1.69832
-2.4949
0.036488
-1.82562
-1.6446
-0.216917
-2.48062
1.50457
-2.04178
2.45355
-0.552851
2.14174
1.2213
0.728016
2.36845
-1.06221
2.29882
-2.30877
1.0476
-2.37054
-0.742759
-1.21425
-2.15168
0.56798
-2.45472
2.06118
-1.49574
2.49826
0.233053
1.65388
1.8427
-0.0402159
2.50517
-1.71519
1.87934
-2.51147
0.285726
-2.0205
-1.45694
-0.49353
-2.4525
1.28631
-2.18875
2.40575
-0.799812
2.29116
1.00195
-0.996335
0.791246
-2.27224
2.17178
-2.381
2.43631
-1.26655
1.44927
0.499039
-0.282383
2.00827
-1.86855
2.48543
-2.49406
1.68514
-1.83761
0.0179526
-0.235987
-1.65929
1.48774
-2.48414
2.44723
-2.0324
2.149
-0.535348
0.745164
1.23797
-1.04371
2.37567
-2.29803
2.2928
-2.37261
1.03129
-1.22762
-0.761017
0.550463
-2.16237
2.04858
-2.45208
2.49683
-1.48072
1.66382
0.253161
-0.0247035
1.85796
-1.70273
2.50807
-2.50887
1.86862
-2.02908
0.266953
-0.50841
-1.47429
1.27355
-2.45995
2.40247
-2.18315
2.29963
-0.78483
1.01796
0.774869
-1.01226
2.16336
-2.27951
2.44025
-2.37577
1.4638
-1.25124
-0.264414
0.516878
-1.85616
2.01967
-2.4936
2.48456
-1.84959
1.67226
-0.25474
-0.000625878
1.47137
-1.6743
2.44132
-2.48802
2.15651
-2.02318
0.762479
-0.517766
-1.02509
1.25484
-2.28721
2.38299
-2.37474
2.28654
-1.24136
1.01443
0.532242
-0.77996
2.03511
-2.17363
2.49467
-2.44965
1.67355
-1.46555
-0.00865907
0.273662
-1.68914
1.87369
-2.50496
2.51142
-2.03669
1.85834
-0.523084
0.248714
1.26015
-1.49099
2.39802
-2.46678
2.30686
-2.17723
1.03311
-0.770069
0.758575
2.15514
-1.02835
2.44428
-2.28713
1.47809
-2.3708
-0.247018
-1.23586
-1.84442
0.535151
-2.49356
2.03173
-1.86155
2.48426
-0.273028
1.6596
1.45566
-0.0193532
2.43595
-1.68962
2.16428
-2.49209
0.779754
-2.01384
-1.00667
-0.499783
-2.27661
1.27211
-2.37708
2.39041
-1.25538
2.27993
0.513583
0.996833
2.02106
-0.799711
2.49201
-2.18546
1.6832
-2.44747
0.0079119
-1.45034
-1.67446
0.29429
-2.49976
1.88948
-2.04337
2.51482
-0.537645
1.8483
1.24596
0.231085
2.39216
-1.50669
2.31266
-2.47249
1.04742
-2.17054
-0.7553
2.14706
0.742106
2.4485
-1.04495
1.49234
-2.29534
-0.229987
-2.36618
-1.83324
-1.22037
-2.49395
0.553969
-1.8735
2.04445
-0.290825
2.48438
1.44071
1.64695
2.43126
-0.0383881
2.17234
-1.70524
0.796832
-2.49612
-0.988744
-2.00405
-2.26652
-0.48111
-2.37977
1.28993
-1.26956
2.39791
0.494811
2.27288
2.00684
0.978494
2.48917
-0.820177
1.69284
-2.19773
0.0248862
-2.44543
-1.6589
-1.43523
-2.49346
0.314627
-2.04923
1.90476
-0.5521
2.51772
1.23095
1.83821
2.38482
0.214135
2.31695
-1.52106
1.06084
-2.47665
-0.740384
-2.16275
2.13903
2.45306
0.725222
1.50687
-1.06231
-0.21302
-2.30428
-1.82246
-2.36188
-2.49477
-1.20465
-1.88558
0.573368
-0.308229
2.0577
1.42655
2.48465
2.42736
1.63401
2.18076
-0.0578872
0.813672
-1.72109
-0.971523
-2.49987
-2.25724
-1.99349
-2.38297
-0.46156
-1.28383
1.30832
0.47626
2.40542
1.99291
2.26536
2.4865
0.95957
1.70257
-0.841002
0.0420809
-2.21005
-1.64284
-2.44335
-2.48643
-1.42037
-2.05443
0.334187
-0.566439
1.91889
1.21525
2.5196
2.37613
1.8278
2.31976
0.197912
1.07336
-1.53383
-0.725284
-2.47902
-2.1537
2.45807
2.13094
1.52199
0.707712
-0.19575
-1.08056
-1.81181
-2.31393
-2.49602
-2.35773
-1.89795
-1.18855
-0.325457
0.593324
1.41304
2.07125
2.42427
2.48469
2.18967
1.62044
0.830345
-0.0779872
-0.955094
-1.73707
-2.24896
-2.50311
-2.38689
-1.98199
-1.2982
-0.441113
0.458196
1.32714
1.9797
2.41282
2.48442
2.25747
1.71256
0.94042
0.0592897
-0.861633
-1.62675
-2.22189
-2.47917
-2.441
-2.05929
-1.40591
-0.58067
0.352512
1.19912
1.9313
2.36641
2.52003
2.3213
1.81692
1.08503
0.182456
-0.710085
-1.5449
-2.14347
-2.47952
2.46355
1.53793
2.12265
-0.177789
0.689433
-1.801
-1.09968
-2.4976
-2.32405
-1.91079
-2.35347
-0.342852
-1.17191
1.39991
0.613763
2.42193
2.08477
2.1992
2.48412
0.847048
1.60598
-0.939345
-0.0987327
-2.24177
-1.75303
-2.39173
-2.50567
-1.3128
-1.96957
0.440706
-0.419988
1.96755
1.3461
2.48332
2.41994
1.72303
2.24935
0.076381
0.921558
-1.61108
-0.881399
-2.47228
-2.23268
-2.06428
-2.43811
-0.594854
-1.39199
1.18287
0.369235
2.35616
1.94162
2.32201
2.51878
1.09598
1.80551
-0.694914
0.167797
-2.1323
-1.55435
-2.47838
1.55481
2.46938
-0.158841
2.11399
-1.7897
0.670344
-2.49939
-1.11951
-1.92429
-2.33431
-0.360808
-2.34873
1.38677
-1.1546
2.42013
0.634535
2.20946
2.09795
0.864088
2.48261
-0.923999
1.59049
-2.2356
-0.12002
-2.39762
-1.76881
-1.32786
-2.50752
0.423678
-1.95642
1.9566
-0.398626
2.48353
1.36473
1.73425
2.42657
0.0933755
2.2412
-1.5962
0.903526
-2.46635
-0.89962
-2.06988
-2.24192
-0.609171
-2.43448
1.16675
-1.37866
2.34596
0.38418
2.32246
1.94977
1.10653
2.51591
-0.679855
1.79365
-2.12057
0.153885
-2.47604
-1.56243
1.57254
-0.138758
2.47534
-1.7776
2.10476
-2.50116
0.650487
-1.9385
-1.13972
-0.37967
-2.34427
1.37312
-2.3432
2.41854
-1.13654
2.22043
0.65544
0.881772
2.11048
-0.908635
2.48
-2.23014
1.57405
-2.40457
-0.141621
-1.34363
-1.7842
0.406824
-2.5087
1.94671
-1.94294
2.48517
-0.377615
1.7465
1.3825
0.110427
2.4325
-1.58225
2.23321
-2.46178
0.886792
-2.07661
-0.91579
-0.623895
-2.24925
1.15095
-2.43002
2.33635
-1.36593
2.32331
0.397414
1.11712
1.95594
-0.664916
2.51171
-2.10873
1.78154
-2.47309
0.140576
-1.56963
-0.117569
1.59082
-1.7645
2.48107
-2.50266
2.09479
-1.95331
0.629996
-0.399664
-1.15991
1.3585
-2.3535
2.41673
-2.33663
2.23197
-1.11778
0.900334
0.67627
-0.892747
2.12219
-2.22494
2.47633
-2.41244
1.55693
-1.36033
-0.163176
0.389723
-1.799
1.93754
-2.50937
2.48817
-1.92963
1.75998
-0.357617
0.127806
1.39889
-1.5691
2.43752
-2.45878
2.22551
-2.08484
0.871659
-0.639331
-0.929669
1.13545
-2.2546
2.32774
-2.42471
2.32521
-1.35374
1.12828
0.409225
-0.649981
1.96064
-2.09712
2.50663
-2.47019
1.76933
-1.57654
0.127624
-0.0955403
-1.75035
1.60921
-2.50359
2.48616
-1.96848
2.08398
-0.420799
0.609109
1.34263
-1.17971
2.41426
-2.36168
2.24379
-2.32896
0.919867
-1.09849
-0.875901
0.696801
-2.21946
2.13302
-2.42085
2.47181
-1.37801
1.53959
0.371947
-0.18423
1.92858
-1.81303
2.49221
-2.50971
1.7747
-1.91698
0.145832
-0.339228
-1.55643
1.41345
-2.45724
2.44145
-2.09476
2.21811
-0.655778
0.858166
1.12013
-0.941323
2.32034
-2.25814
2.32865
-2.41868
1.14052
-1.34192
-0.634814
0.420087
-2.08598
1.9645
-2.46796
2.50121
-1.58382
1.75715
0.114662
-1.73524
-0.0731094
-2.5037
1.62719
-1.98362
2.49031
-0.442817
2.07234
1.3254
0.5881
2.41074
-1.19878
2.2555
-2.36869
0.940244
-2.32031
-0.857828
-1.07894
-2.21315
0.71684
-2.42934
2.14307
-1.39654
2.46687
0.3532
1.52255
1.91924
-0.204329
2.49679
-1.82609
1.79053
-2.50989
0.164746
-1.90539
-1.54381
-0.322837
-2.45679
1.42591
-2.10628
2.4442
-0.673432
2.21095
1.10474
0.846093
2.31409
-0.951146
2.33386
-2.26029
1.15424
-2.41213
-0.619143
-1.33027
-2.07541
0.430607
-2.46684
1.96827
-1.59209
2.49597
0.101259
1.74504
-1.71947
-2.5029
-0.050782
-1.9983
1.64429
-0.465264
2.49335
1.30701
2.06003
2.40603
0.56725
2.26671
-1.21697
0.961152
-2.37464
-0.838488
-2.31104
-2.20562
-1.05946
-2.43738
0.736276
-1.4156
2.15252
0.333367
2.46192
1.90904
1.50636
2.50132
-0.223073
1.80713
-1.83803
0.184642
-2.50997
-1.53075
-1.89503
-2.45689
-0.308581
-2.11909
1.43627
-0.692314
2.44575
1.08902
2.20387
2.30874
0.83503
2.34083
-0.959765
1.16966
-2.26163
-0.602719
-2.40528
-2.06534
-1.31855
-2.46713
0.4414
-1.60187
1.97261
0.0870086
2.49128
1.73295
-2.50122
-1.70343
-2.01215
-0.0290327
-0.487583
1.66026
1.28791
2.49535
2.40018
2.04734
2.27712
0.546789
0.982178
-1.23435
-0.818122
-2.37987
-2.19674
-2.30158
-2.44455
-1.04039
-1.43478
0.755055
0.312563
2.16161
1.89768
2.45735
2.50526
1.4914
1.82403
-0.240162
0.205449
-1.84871
-1.5169
-2.50989
-2.45697
-1.88583
-2.13271
-0.296294
-0.712293
1.44475
1.07272
2.44623
2.30391
2.19667
2.34927
0.824428
1.18674
-0.967911
-0.585368
-2.26279
-2.05564
-2.39838
-2.46889
-1.3065
-1.61342
0.453023
0.0715633
1.97809
1.72073
2.4874
-2.49891
-2.02505
-1.68752
-0.509257
-0.00814562
1.26868
1.67517
2.39352
2.49665
2.28663
2.03458
1.00289
0.526791
-0.797172
-1.25116
-2.18666
-2.38489
-2.45063
-2.29238
-1.45365
-1.02194
0.291103
0.773199
1.88514
2.17051
2.50823
2.45339
1.84078
1.47784
0.226918
-0.255478
-1.50212
-1.85802
-2.45651
-2.50952
-2.14658
-1.87749
-0.733093
-0.285537
1.05575
1.45179
2.29917
2.44588
2.35871
2.18921
1.20525
0.813726
-0.567059
-0.976331
-2.04613
-2.26436
-2.472
-2.39164
-1.62682
-1.2939
0.0547176
0.46593
1.70828
1.98507
2.48446
-2.03706
-2.49632
-0.530002
-1.67206
1.24985
0.01191
2.38653
1.68936
2.29535
2.49773
1.02299
2.02205
-0.776137
0.507129
-2.17578
-1.26787
-2.45568
-2.39017
-1.47193
-2.28376
0.269372
-1.00418
1.8716
0.790789
2.51011
2.17927
1.85699
2.45001
0.248713
1.46564
-1.48641
-0.269069
-2.45521
-1.86593
-2.16024
-2.50864
-0.754353
-1.86962
1.03808
-0.275709
2.29415
1.45802
2.36865
2.44506
1.22479
2.18142
-0.547891
0.802455
-2.03662
-0.985679
-2.47621
-2.26684
-1.64195
-2.3852
0.0364483
-1.2806
1.69548
0.480403
2.48245
1.99375
-2.04855
-0.549852
-2.49382
1.23177
-1.65712
2.37969
0.0314776
2.3036
1.70346
1.04241
2.49908
-0.755461
2.00986
-2.16462
0.487488
-2.45998
-1.28499
-1.48953
-2.3961
0.247719
-2.2758
1.85742
-0.987005
2.51099
0.807883
1.87248
2.18781
0.270529
2.44698
-1.46999
1.45454
-2.45298
-0.281133
-2.17334
-1.87254
-0.775746
-2.50716
1.01979
-1.86178
2.2886
-0.266144
2.37862
1.46415
1.24492
2.44425
-0.528029
2.17333
-2.02698
0.790255
-2.4812
-0.996448
-1.65851
-2.27064
0.016866
-2.37918
1.6823
-1.26649
2.48132
0.496578
2.00417
-0.569158
-2.06002
1.21445
-2.49167
2.37333
-1.64248
2.31178
0.0511678
1.06127
1.71814
-0.735383
2.50107
-2.15366
1.99784
-2.46396
0.467398
-1.50659
-1.30291
0.226371
-2.40274
1.84299
-2.26827
2.51117
-0.970181
1.88729
0.82448
0.292146
2.19586
-1.45311
2.44395
-2.4499
1.44415
-2.18575
-0.292024
-0.797032
-1.8781
1.00105
-2.50511
2.28241
-1.85366
2.38825
-0.256177
1.26526
1.47091
-0.507675
2.44395
-2.01712
2.16505
-2.48665
0.776891
-1.67614
-1.009
-0.00381517
-2.27598
1.66876
-2.37367
2.48097
-1.25155
2.01625
0.514476
-0.588526
1.19753
-2.07193
2.36754
-2.48991
2.32023
-1.62767
1.07992
0.071721
-0.715847
1.73394
-2.14319
2.50374
-2.46807
1.98562
-1.52341
0.446376
0.205346
-1.32179
1.82861
-2.40984
2.51103
-2.26075
1.90161
-0.953461
0.313501
0.840514
-1.43599
2.20315
-2.44618
2.44056
-2.19753
1.4341
-0.81809
-0.302217
0.98196
-1.8831
2.27556
-2.50274
2.39737
-1.84509
1.28554
-0.245236
-0.486992
1.47902
-2.00694
2.44466
-2.49223
2.15674
-1.69445
0.762236
-0.0253278
-1.02355
1.65489
-2.28301
2.48126
-2.36868
2.02984
-1.23577
0.534007
1.1804
-0.608627
2.36208
-2.0846
2.32916
-2.4883
1.09877
-1.61206
-0.696556
0.0937648
-2.13324
1.75108
-2.4726
2.50679
-1.54032
1.97264
0.184484
0.424118
1.81443
-1.34148
2.5109
-2.41686
1.91574
-2.25276
0.334699
-0.936708
-1.41877
0.855844
-2.44207
2.20948
-2.20883
2.43665
-0.838945
1.4241
0.962601
-0.312282
2.2681
-1.88825
2.40591
-2.5005
1.30562
-1.836
-0.466045
-0.232835
-1.99633
1.48908
-2.49766
2.44681
-1.71309
2.14848
-0.0474474
0.746185
1.64068
-1.0402
2.48201
-2.29175
2.04469
-2.36416
0.555016
-1.21916
1.16235
2.35642
-0.629982
2.33852
-2.09809
1.11817
-2.48639
-0.677042
-1.595
-2.1235
0.117634
-2.4776
1.76938
-1.55762
2.50964
0.163532
1.95841
1.80039
0.40061
2.51094
-1.36144
1.92997
-2.42318
0.355929
-2.24397
-1.40146
-0.919945
-2.43771
0.87036
-2.21985
2.21493
-0.859714
2.43234
0.942984
1.41388
2.26008
-0.322906
2.41388
-1.89436
1.3255
-2.49892
-0.444833
-1.82638
-1.9852
-0.218549
-2.50269
1.50153
-1.73179
2.45062
-0.0700097
2.14028
1.62611
0.728637
2.48295
-1.05898
2.06047
-2.30206
0.577313
-2.35999
-1.20173
2.34996
1.14274
2.34803
-0.65283
1.13832
-2.11211
-0.656789
-2.48362
-2.1135
-1.57609
-2.48285
0.14326
-1.5754
1.78824
0.142202
2.51164
1.78627
1.94268
2.51116
0.376217
1.94446
-1.381
0.377395
-2.42833
-1.38395
-2.23439
-2.43318
-0.903388
-2.23075
0.884116
-0.88052
2.21988
0.923054
2.42792
2.25152
1.40328
2.42135
-0.334835
1.3452
-1.90228
-0.423306
-2.49842
-1.97339
-1.81614
-2.50711
-0.202044
-1.75031
1.51665
-0.0928962
2.45609
1.61103
2.13198
2.48374
0.709509
2.07679
-1.07977
0.600642
-2.3137
-1.18346
-2.35591
2.34211
2.35725
1.12127
1.1592
-0.677035
-0.635413
-2.12614
-2.10267
-2.47948
-2.48793
-1.55527
-1.59359
0.170117
0.120287
1.80689
1.77177
2.51225
2.51137
1.92561
1.95923
0.351662
0.399252
-1.39947
-1.36609
-2.43215
-2.42842
-2.22434
-2.24157
-0.887316
-0.901467
0.897373
0.902742
2.22498
2.24243
2.42379
2.42834
1.39201
1.36475
-0.348776
-0.4014
-1.91262
-1.9608
-2.49918
-2.51073
-1.80508
-1.76846
-0.183083
-0.116041
1.53441
1.59528
2.46295
2.48401
2.12327
2.09319
0.688739
0.62469
-1.10229
-1.16433
-2.32623
-2.35161
2.36572
2.33253
1.18057
1.09798
-0.612749
-0.702097
-2.09053
-2.13959
-2.49233
-2.47371
-1.61191
-1.5329
0.0977272
0.197346
1.75659
1.82451
2.51124
2.5113
1.97411
1.90778
0.421515
0.327836
-1.34776
-1.41637
-2.42331
-2.43491
-2.25228
-2.21444
-0.922573
-0.871905
0.882025
0.910625
2.23277
2.23095
2.43482
2.42025
1.38415
1.37972
-0.379119
-0.365304
-1.94738
-1.92564
-2.51342
-2.50101
-1.78606
-1.79284
-0.139369
-0.161574
1.57874
1.55448
2.48336
2.47068
2.10916
2.11381
0.649105
0.666375
-1.14435
-1.12612
-2.34671
-2.33905
2.37307
1.20205
2.3212
-0.588874
1.07332
-2.07682
-0.727318
-2.49563
-2.15193
-1.63001
-2.46641
0.0745852
-1.50973
1.74052
0.22396
2.51044
1.84049
1.98882
2.50902
0.444073
1.89011
-1.3289
0.305601
-2.41772
-1.43154
-2.26275
-2.43717
-0.943749
-2.20528
0.860929
-0.857131
2.22254
0.924503
2.44077
2.23835
1.40333
2.41728
-0.356552
1.36599
-1.93316
-0.384706
-2.51511
-1.94114
-1.803
-2.50337
-0.162745
-1.77908
1.56136
-0.137677
2.4815
1.57626
2.12426
2.47856
0.673469
2.10324
-1.12362
0.642648
-2.34084
-1.15061
-2.35151
1.22323
2.37913
-0.564118
2.30841
-2.06157
1.04802
-2.49754
-0.751947
-1.64756
-2.16287
0.051031
-2.45799
1.72346
-1.48674
2.50867
0.249017
2.00303
1.8546
0.466741
2.50605
-1.30952
1.87362
-2.41152
0.285602
-2.2728
-1.44517
-0.964856
-2.43958
0.839544
-2.19722
2.21179
-0.842707
2.44616
0.939556
1.42217
2.24735
-0.333849
2.41452
-1.91828
1.35044
-2.51585
-0.40686
-1.81914
-1.95846
-0.186005
-2.50553
1.54322
-1.76354
2.47831
-0.111844
2.13812
1.59887
0.697364
2.48589
-1.10232
2.09138
-2.33377
0.617973
-2.36297
-1.17502
1.24375
-0.538966
2.38396
-2.04504
2.29475
-2.49804
1.02291
-1.66432
-0.775332
0.027302
-2.1724
1.70546
-2.44916
2.50576
-1.46496
2.01648
0.271814
0.489285
1.86693
-1.28972
2.50318
-2.40466
1.85916
-2.28229
0.268086
-0.985732
-1.45764
0.818025
-2.44262
2.20061
-2.19023
2.45098
-0.828148
1.44057
0.956078
-0.311215
2.25766
-1.90298
2.41139
-2.51578
1.33283
-1.83447
-0.43125
-0.208955
-1.9766
1.52457
-2.50675
2.47387
-1.74623
2.15055
-0.0847921
0.720446
1.62136
-1.08073
2.49204
-2.32544
2.07828
-2.37292
0.59293
-1.19861
-0.513943
1.26335
-2.02773
2.38783
-2.49734
2.28093
-1.6802
0.998812
0.00361345
-0.797054
1.68667
-2.18078
2.5017
-2.44075
2.029
-1.44526
0.511514
0.291987
-1.26959
1.87783
-2.39713
2.50111
-2.29114
1.84718
-1.00623
0.252897
0.796506
-1.46943
2.18909
-2.44642
2.45531
-2.1839
1.45849
-0.812958
-0.288833
0.974024
-1.88751
2.26862
-2.51512
2.40724
-1.84905
1.31325
-0.231417
-0.457021
1.50572
-1.99454
2.46846
-2.50653
2.16162
-1.7275
0.74248
-0.0574484
-1.05921
1.64284
-2.31601
2.49663
-2.38114
2.06421
-1.22079
0.568186
-0.489557
-2.01023
1.28191
-2.4958
2.39111
-1.69525
2.26769
-0.0198543
0.97638
1.66732
-0.816936
2.49661
-2.18842
2.04058
-2.4335
0.533336
-1.42824
-1.24924