# vtk DataFile Version 3.1
vtk output
ASCII
DATASET POLYDATA
POINTS 4260 FLOAT
2.83277e-16          -1    -3.14159
-0.104528 -0.994522  -3.14159
 0.104528 -0.994522  -3.14159
-0.207912 -0.978148  -3.14159
 0.207912 -0.978148  -3.14159
-0.309017 -0.951057  -3.14159
 0.309017 -0.951057  -3.14159
-0.406737 -0.913545  -3.14159
 0.406737 -0.913545  -3.14159
     -0.5 -0.866025  -3.14159
      0.5 -0.866025  -3.14159
-0.587785 -0.809017  -3.14159
 0.587785 -0.809017  -3.14159
-0.669131 -0.743145  -3.14159
 0.669131 -0.743145  -3.14159
-0.743145 -0.669131  -3.14159
 0.743145 -0.669131  -3.14159
-0.809017 -0.587785  -3.14159
 0.809017 -0.587785  -3.14159
-0.866025      -0.5  -3.14159
0.866025     -0.5 -3.14159
-0.913545 -0.406737  -3.14159
 0.913545 -0.406737  -3.14159
-0.951057 -0.309017  -3.14159
 0.951057 -0.309017  -3.14159
-0.978148 -0.207912  -3.14159
 0.978148 -0.207912  -3.14159
-0.994522 -0.104528  -3.14159
 0.994522 -0.104528  -3.14159
          -1 -5.66554e-16     -3.14159
       1        0 -3.14159
-0.994522  0.104528  -3.14159
0.994522 0.104528 -3.14159
-0.978148  0.207912  -3.14159
0.978148 0.207912 -3.14159
-0.951057  0.309017  -3.14159
0.951057 0.309017 -3.14159
-0.913545  0.406737  -3.14159
0.913545 0.406737 -3.14159
-0.866025       0.5  -3.14159
0.866025      0.5 -3.14159
-0.809017  0.587785  -3.14159
0.809017 0.587785 -3.14159
-0.743145  0.669131  -3.14159
0.743145 0.669131 -3.14159
-0.669131  0.743145  -3.14159
0.669131 0.743145 -3.14159
-0.587785  0.809017  -3.14159
0.587785 0.809017 -3.14159
    -0.5 0.866025 -3.14159
     0.5 0.866025 -3.14159
-0.406737  0.913545  -3.14159
0.406737 0.913545 -3.14159
-0.309017  0.951057  -3.14159
0.309017 0.951057 -3.14159
-0.207912  0.978148  -3.14159
0.207912 0.978148 -3.14159
-0.104528  0.994522  -3.14159
0.104528 0.994522 -3.14159
-1.83697e-16            1     -3.14159
-0.052336  -0.99863   -3.0509
0.052336 -0.99863  -3.0509
-0.156434 -0.987688   -3.0509
 0.156434 -0.987688   -3.0509
-0.258819 -0.965926   -3.0509
 0.258819 -0.965926   -3.0509
-0.358368  -0.93358   -3.0509
0.358368 -0.93358  -3.0509
 -0.45399 -0.891007   -3.0509
  0.45399 -0.891007   -3.0509
-0.544639 -0.838671   -3.0509
 0.544639 -0.838671   -3.0509
 -0.62932 -0.777146   -3.0509
  0.62932 -0.777146   -3.0509
-0.707107 -0.707107   -3.0509
 0.707107 -0.707107   -3.0509
-0.777146  -0.62932   -3.0509
0.777146 -0.62932  -3.0509
-0.838671 -0.544639   -3.0509
 0.838671 -0.544639   -3.0509
-0.891007  -0.45399   -3.0509
0.891007 -0.45399  -3.0509
 -0.93358 -0.358368   -3.0509
  0.93358 -0.358368   -3.0509
-0.965926 -0.258819   -3.0509
 0.965926 -0.258819   -3.0509
-0.987688 -0.156434   -3.0509
 0.987688 -0.156434   -3.0509
 -0.99863 -0.052336   -3.0509
  0.99863 -0.052336   -3.0509
-0.99863 0.052336  -3.0509
 0.99863 0.052336  -3.0509
-0.987688  0.156434   -3.0509
0.987688 0.156434  -3.0509
-0.965926  0.258819   -3.0509
0.965926 0.258819  -3.0509
-0.93358 0.358368  -3.0509
 0.93358 0.358368  -3.0509
-0.891007   0.45399   -3.0509
0.891007  0.45399  -3.0509
-0.838671  0.544639   -3.0509
0.838671 0.544639  -3.0509
-0.777146   0.62932   -3.0509
0.777146  0.62932  -3.0509
-0.707107  0.707107   -3.0509
0.707107 0.707107  -3.0509
-0.62932 0.777146  -3.0509
 0.62932 0.777146  -3.0509
-0.544639  0.838671   -3.0509
0.544639 0.838671  -3.0509
-0.45399 0.891007  -3.0509
 0.45399 0.891007  -3.0509
-0.358368   0.93358   -3.0509
0.358368  0.93358  -3.0509
-0.258819  0.965926   -3.0509
0.258819 0.965926  -3.0509
-0.156434  0.987688   -3.0509
0.156434 0.987688  -3.0509
-0.052336   0.99863   -3.0509
0.052336  0.99863  -3.0509
6.12323e-17          -1    -2.96021
-0.104528 -0.994522  -2.96021
 0.104528 -0.994522  -2.96021
-0.207912 -0.978148  -2.96021
 0.207912 -0.978148  -2.96021
-0.309017 -0.951057  -2.96021
 0.309017 -0.951057  -2.96021
-0.406737 -0.913545  -2.96021
 0.406737 -0.913545  -2.96021
     -0.5 -0.866025  -2.96021
      0.5 -0.866025  -2.96021
-0.587785 -0.809017  -2.96021
 0.587785 -0.809017  -2.96021
-0.669131 -0.743145  -2.96021
 0.669131 -0.743145  -2.96021
-0.743145 -0.669131  -2.96021
 0.743145 -0.669131  -2.96021
-0.809017 -0.587785  -2.96021
 0.809017 -0.587785  -2.96021
-0.866025      -0.5  -2.96021
0.866025     -0.5 -2.96021
-0.913545 -0.406737  -2.96021
 0.913545 -0.406737  -2.96021
-0.951057 -0.309017  -2.96021
 0.951057 -0.309017  -2.96021
-0.978148 -0.207912  -2.96021
 0.978148 -0.207912  -2.96021
-0.994522 -0.104528  -2.96021
 0.994522 -0.104528  -2.96021
          -1 -5.66554e-16     -2.96021
          1 2.77556e-17    -2.96021
-0.994522  0.104528  -2.96021
0.994522 0.104528 -2.96021
-0.978148  0.207912  -2.96021
0.978148 0.207912 -2.96021
-0.951057  0.309017  -2.96021
0.951057 0.309017 -2.96021
-0.913545  0.406737  -2.96021
0.913545 0.406737 -2.96021
-0.866025       0.5  -2.96021
0.866025      0.5 -2.96021
-0.809017  0.587785  -2.96021
0.809017 0.587785 -2.96021
-0.743145  0.669131  -2.96021
0.743145 0.669131 -2.96021
-0.669131  0.743145  -2.96021
0.669131 0.743145 -2.96021
-0.587785  0.809017  -2.96021
0.587785 0.809017 -2.96021
    -0.5 0.866025 -2.96021
     0.5 0.866025 -2.96021
-0.406737  0.913545  -2.96021
0.406737 0.913545 -2.96021
-0.309017  0.951057  -2.96021
0.309017 0.951057 -2.96021
-0.207912  0.978148  -2.96021
0.207912 0.978148 -2.96021
-0.104528  0.994522  -2.96021
0.104528 0.994522 -2.96021
-1.83697e-16            1     -2.96021
-0.052336  -0.99863  -2.86952
0.052336 -0.99863 -2.86952
-0.156434 -0.987688  -2.86952
 0.156434 -0.987688  -2.86952
-0.258819 -0.965926  -2.86952
 0.258819 -0.965926  -2.86952
-0.358368  -0.93358  -2.86952
0.358368 -0.93358 -2.86952
 -0.45399 -0.891007  -2.86952
  0.45399 -0.891007  -2.86952
-0.544639 -0.838671  -2.86952
 0.544639 -0.838671  -2.86952
 -0.62932 -0.777146  -2.86952
  0.62932 -0.777146  -2.86952
-0.707107 -0.707107  -2.86952
 0.707107 -0.707107  -2.86952
-0.777146  -0.62932  -2.86952
0.777146 -0.62932 -2.86952
-0.838671 -0.544639  -2.86952
 0.838671 -0.544639  -2.86952
-0.891007  -0.45399  -2.86952
0.891007 -0.45399 -2.86952
 -0.93358 -0.358368  -2.86952
  0.93358 -0.358368  -2.86952
-0.965926 -0.258819  -2.86952
 0.965926 -0.258819  -2.86952
-0.987688 -0.156434  -2.86952
 0.987688 -0.156434  -2.86952
 -0.99863 -0.052336  -2.86952
  0.99863 -0.052336  -2.86952
-0.99863 0.052336 -2.86952
 0.99863 0.052336 -2.86952
-0.987688  0.156434  -2.86952
0.987688 0.156434 -2.86952
-0.965926  0.258819  -2.86952
0.965926 0.258819 -2.86952
-0.93358 0.358368 -2.86952
 0.93358 0.358368 -2.86952
-0.891007   0.45399  -2.86952
0.891007  0.45399 -2.86952
-0.838671  0.544639  -2.86952
0.838671 0.544639 -2.86952
-0.777146   0.62932  -2.86952
0.777146  0.62932 -2.86952
-0.707107  0.707107  -2.86952
0.707107 0.707107 -2.86952
-0.62932 0.777146 -2.86952
 0.62932 0.777146 -2.86952
-0.544639  0.838671  -2.86952
0.544639 0.838671 -2.86952
-0.45399 0.891007 -2.86952
 0.45399 0.891007 -2.86952
-0.358368   0.93358  -2.86952
0.358368  0.93358 -2.86952
-0.258819  0.965926  -2.86952
0.258819 0.965926 -2.86952
-0.156434  0.987688  -2.86952
0.156434 0.987688 -2.86952
-0.052336   0.99863  -2.86952
0.052336  0.99863 -2.86952
6.12323e-17          -1    -2.77883
-0.104528 -0.994522  -2.77883
 0.104528 -0.994522  -2.77883
-0.207912 -0.978148  -2.77883
 0.207912 -0.978148  -2.77883
-0.309017 -0.951057  -2.77883
 0.309017 -0.951057  -2.77883
-0.406737 -0.913545  -2.77883
 0.406737 -0.913545  -2.77883
     -0.5 -0.866025  -2.77883
      0.5 -0.866025  -2.77883
-0.587785 -0.809017  -2.77883
 0.587785 -0.809017  -2.77883
-0.669131 -0.743145  -2.77883
 0.669131 -0.743145  -2.77883
-0.743145 -0.669131  -2.77883
 0.743145 -0.669131  -2.77883
-0.809017 -0.587785  -2.77883
 0.809017 -0.587785  -2.77883
-0.866025      -0.5  -2.77883
0.866025     -0.5 -2.77883
-0.913545 -0.406737  -2.77883
 0.913545 -0.406737  -2.77883
-0.951057 -0.309017  -2.77883
 0.951057 -0.309017  -2.77883
-0.978148 -0.207912  -2.77883
 0.978148 -0.207912  -2.77883
-0.994522 -0.104528  -2.77883
 0.994522 -0.104528  -2.77883
          -1 -1.22465e-16     -2.77883
          1 5.55112e-17    -2.77883
-0.994522  0.104528  -2.77883
0.994522 0.104528 -2.77883
-0.978148  0.207912  -2.77883
0.978148 0.207912 -2.77883
-0.951057  0.309017  -2.77883
0.951057 0.309017 -2.77883
-0.913545  0.406737  -2.77883
0.913545 0.406737 -2.77883
-0.866025       0.5  -2.77883
0.866025      0.5 -2.77883
-0.809017  0.587785  -2.77883
0.809017 0.587785 -2.77883
-0.743145  0.669131  -2.77883
0.743145 0.669131 -2.77883
-0.669131  0.743145  -2.77883
0.669131 0.743145 -2.77883
-0.587785  0.809017  -2.77883
0.587785 0.809017 -2.77883
    -0.5 0.866025 -2.77883
     0.5 0.866025 -2.77883
-0.406737  0.913545  -2.77883
0.406737 0.913545 -2.77883
-0.309017  0.951057  -2.77883
0.309017 0.951057 -2.77883
-0.207912  0.978148  -2.77883
0.207912 0.978148 -2.77883
-0.104528  0.994522  -2.77883
0.104528 0.994522 -2.77883
-1.83697e-16            1     -2.77883
-0.052336  -0.99863  -2.68814
0.052336 -0.99863 -2.68814
-0.156434 -0.987688  -2.68814
 0.156434 -0.987688  -2.68814
-0.258819 -0.965926  -2.68814
 0.258819 -0.965926  -2.68814
-0.358368  -0.93358  -2.68814
0.358368 -0.93358 -2.68814
 -0.45399 -0.891007  -2.68814
  0.45399 -0.891007  -2.68814
-0.544639 -0.838671  -2.68814
 0.544639 -0.838671  -2.68814
 -0.62932 -0.777146  -2.68814
  0.62932 -0.777146  -2.68814
-0.707107 -0.707107  -2.68814
 0.707107 -0.707107  -2.68814
-0.777146  -0.62932  -2.68814
0.777146 -0.62932 -2.68814
-0.838671 -0.544639  -2.68814
 0.838671 -0.544639  -2.68814
-0.891007  -0.45399  -2.68814
0.891007 -0.45399 -2.68814
 -0.93358 -0.358368  -2.68814
  0.93358 -0.358368  -2.68814
-0.965926 -0.258819  -2.68814
 0.965926 -0.258819  -2.68814
-0.987688 -0.156434  -2.68814
 0.987688 -0.156434  -2.68814
 -0.99863 -0.052336  -2.68814
  0.99863 -0.052336  -2.68814
-0.99863 0.052336 -2.68814
 0.99863 0.052336 -2.68814
-0.987688  0.156434  -2.68814
0.987688 0.156434 -2.68814
-0.965926  0.258819  -2.68814
0.965926 0.258819 -2.68814
-0.93358 0.358368 -2.68814
 0.93358 0.358368 -2.68814
[...]
POINT_DATA 4260
SCALARS Field double
LOOKUP_TABLE default
-0.325225
-1.89685
1.40841
-2.49585
2.43464
-1.79445
2.20785
-0.17382
0.843087
1.53512
-0.936177
2.47175
-2.23457
2.13096
-2.38806
0.68728
-1.29718
-1.10048
0.457483
-2.336
1.97087
-2.38179
2.48659
-1.19328
1.72034
0.599905
0.0629637
2.0807
-1.61218
2.50894
-2.46349
1.64314
-2.05611
-0.0711123
-0.577083
-1.73583
1.19485
-2.51969
2.34683
-2.01978
2.30924
-0.474198
1.08232
1.30191
-0.705872
2.4001
-2.11382
2.27838
-2.4366
0.980206
-1.51029
-0.823194
0.211449
-2.18494
1.82392
-2.42782
2.4947
-1.42607
1.89961
0.323694
-1.8883
-0.305235
-2.48298
1.43287
-1.80514
2.4301
-0.200418
2.19609
1.52494
0.831614
2.46055
-0.964994
2.12577
-2.24928
0.709252
-2.38196
-1.08453
-1.29841
-2.33129
0.465668
-2.36993
1.98365
-1.19978
2.47295
0.583376
1.70412
2.0843
0.0527334
2.51079
-1.63453
1.64532
-2.46814
-0.050924
-2.03853
-1.73088
-0.567698
-2.53144
1.21119
-2.02396
2.36494
-0.490624
2.29867
1.28473
1.06809
2.41141
-0.713957
2.29204
-2.13362
0.992821
-2.43938
-0.798388
-1.49335
-2.18277
0.215701
-2.4482
1.82976
-1.44153
2.49818
0.29633
1.87328
-1.86895
-2.48423
-0.298171
-1.82531
1.44185
-0.211169
2.43675
1.50611
2.17265
2.4444
0.806095
2.13893
-0.98108
0.722801
-2.27349
-1.07513
-2.3865
-2.31081
-1.28214
-2.36917
0.469718
-1.21483
1.99024
0.581678
2.47898
2.07722
1.68299
2.506
0.0331293
1.66554
-1.64121
-0.037447
-2.48091
-1.72877
-2.03193
-2.52274
-0.542966
-2.03471
1.21914
-0.512165
2.37044
1.28399
2.30002
2.41176
1.041
2.29735
-0.738537
1.02069
-2.14308
-0.783672
-2.45342
-2.18678
-1.48865
-2.45094
0.235827
-1.46529
1.82955
0.263786
2.49318
1.86493
-2.49688
-1.864
-1.83234
-0.278717
-0.23298
1.44103
1.4811
2.43195
2.44691
2.16495
2.1452
0.773942
0.731752
-1.00546
-1.0484
-2.27834
-2.30091
-2.39341
-2.37776
-1.2698
-1.21709
0.49645
0.566277
1.99547
2.05983
2.47909
2.51545
1.68014
1.67568
0.00688746
-0.029129
-1.65826
-1.70697
-2.47787
-2.51979
-2.0326
-2.04868
-0.528622
-0.51514
1.24213
1.27367
2.36643
2.40377
2.28768
2.31659
1.02612
1.03646
-0.773277
-0.776904
-2.16381
-2.17394
-2.45007
-2.46148
-1.48756
-1.49257
0.250744
0.251768
1.85095
1.85148
2.48656
-2.49514
-1.85132
-1.86691
-0.263108
-0.268361
1.47263
1.45873
2.44148
2.42349
2.14738
2.15159
0.759942
0.76302
-1.02963
-1.03106
-2.29793
-2.2863
-2.372
-2.37656
-1.23283
-1.25706
0.539326
0.519661
2.05412
2.02147
2.51128
2.47451
1.67666
1.66798
-0.00485972
-0.00321322
-1.69365
-1.6823
-2.52123
-2.48414
-2.04363
-2.01591
-0.526147
-0.520359
1.25671
1.2553
2.41063
2.37805
2.32333
2.26754
1.0426
1.00126
-0.755651
-0.789921
-2.17117
-2.18739
-2.47722
-2.45066
-1.5003
-1.46303
0.234234
0.266111
1.83643
1.86928
2.50232
-1.87674
-2.50109
-0.27713
-1.84954
1.45434
-0.259562
2.42995
1.47291
2.16783
2.43783
0.780833
2.13759
-1.01564
0.748599
-2.27758
-1.03391
-2.37665
-2.29482
-1.25772
-2.36357
0.525339
-1.22323
2.03478
0.538748
2.49662
2.03843
1.69119
2.48561
0.00790883
1.64779
-1.68775
-0.0236179
-2.50596
-1.68916
-2.04766
-2.49535
-0.543523
-2.00662
1.25575
-0.493457
2.4062
1.26338
2.32089
2.38142
1.06253
2.26607
-0.746173
0.973314
-2.17586
-0.810953
-2.47576
-2.18778
-1.51583
-2.45082
0.212682
-1.44164
1.84096
0.303472
2.51187
1.88526
-1.88217
-0.299251
-2.50838
1.42945
-1.83497
2.43477
-0.227134
2.17892
1.4867
0.795862
2.44783
-0.983788
2.1443
-2.26567
0.730795
-2.38758
-1.04349
-1.2665
-2.28458
0.500587
-2.35633
2.00716
-1.19964
2.49688
0.572108
1.69461
2.04529
0.0126391
2.48377
-1.66654
1.64212
-2.5015
-0.0508878
-2.05955
-1.70402
-0.545636
-2.48725
1.24367
-2.00108
2.39335
-0.473623
2.33303
1.29042
1.07093
2.38091
-0.744699
2.2587
-2.16451
0.96691
-2.48357
-0.83297
-1.53706
-2.19256
0.208503
-2.43048
1.83603
-1.42482
2.5144
0.331538
1.91732
-0.325046
-1.89201
1.42202
-2.49284
2.42938
-1.82117
2.18201
-0.199771
0.826492
1.51944
-0.961759
2.45144
-2.2601
2.14044
-2.38119
0.727832
-1.28397
-1.06209
0.470076
-2.28694
1.9972
-2.33662
2.48884
-1.18811
1.69259
0.589921
0.0347565
2.0633
-1.65492
2.47148
-2.5047
1.62543
-2.05674
-0.0607144
-0.559668
-1.72334
1.22264
-2.48631
2.39512
-1.97692
2.33413
-0.45892
1.07191
1.30934
-0.726833
2.39919
-2.16236
2.24778
-2.49713
0.954193
-1.54093
-0.835886
0.194666
-2.2034
1.82296
-2.4218
2.53009
-1.39561
1.93485
0.347769
-0.330978
1.40639
-1.90442
2.4165
-2.4833
2.19953
-1.78934
0.845065
-0.180537
-0.948458
1.53871
-2.23898
2.46615
-2.38436
2.12386
-1.30726
0.709438
0.457864
-1.06989
1.98025
-2.30218
2.47742
-2.33326
1.71084
-1.167
0.0506426
0.594669
-1.64777
2.06718
-2.49082
2.47376
-2.06469
1.60237
-0.582631
-0.07855
1.21567
-1.72444
2.38536
-2.49135
2.32774
-1.96281
1.08965
-0.428473
-0.717563
1.32117
-2.1653
2.40816
-2.49247
2.25417
-1.55314
0.934842
0.174548
-0.85055
1.82499
-2.20251
2.53223
-2.42708
1.93935
-1.38471
0.372313
1.38497
-0.344743
2.4195
-1.89937
2.20521
-2.48199
0.853711
-1.77158
-0.921651
-0.151917
-2.22963
1.54266
-2.39536
2.46291
-1.31398
2.11659
0.437156
0.678233
1.95878
-1.09269
2.48594
-2.30627
1.72383
-2.3422
0.0644477
-1.16055
-1.62018
0.612509
-2.4843
2.06311
-2.0791
2.46731
-0.590455
1.59781
1.19703
-0.101652
2.3674
-1.73545
2.33758
-2.48194
1.0988
-1.95863
-0.712951
-0.410881
-2.14939
1.34736
-2.49535
2.40918
-1.57031
2.24945
0.171898
0.929136
1.81707
-0.877207
2.52561
-2.21912
1.95581
-2.42494
0.380068
-1.38927
1.38002
2.41227
-0.366132
2.20221
-1.90689
0.876079
-2.47006
-0.907411
-1.76904
-2.22951
-0.142222
-2.39141
1.55478
-1.33107
2.4468
0.409558
2.09617
1.95442
0.661724
2.48641
-1.12363
1.73282
-2.32157
0.0984599
-2.3362
-1.59837
-1.16164
-2.48154
0.621605
-2.0757
2.07825
-0.608343
2.45747
1.17036
1.58596
2.36488
-0.108191
2.33793
-1.75593
1.10292
-2.48693
-0.68923
-1.94287
-2.14053
-0.4038
-2.50289
1.36159
-1.56977
2.42539
0.160248
2.23622
1.80302
0.910147
2.53568
-0.892833
1.96174
-2.24897
0.378606
-2.43881
-1.382
2.39759
1.36442
2.21463
-0.373756
0.887089
-1.92646
-0.901946
-2.47502
-2.21443
-1.75778
-2.398
-0.145542
-1.35554
1.55439
0.397791
2.44795
1.93948
2.07225
2.47918
0.639759
1.75805
-1.13444
0.123695
-2.341
-1.58148
-2.33744
-2.46028
-1.14293
-2.08072
0.628481
-0.632989
2.08883
1.15923
2.46826
2.35183
1.56875
2.33188
-0.126486
1.12542
-1.76455
-0.67229
-2.50407
-2.13558
-1.94114
-2.49239
-0.382252
-1.5789
1.369
0.141172
2.43228
1.80511
2.23914
2.53702
0.882779
1.96334
-0.920693
0.396283
-2.26425
-1.38287
-2.4596
2.39932
2.21735
1.34093
0.890763
-0.393745
-0.880583
-1.93391
-2.20911
-2.49151
-2.41087
-1.75898
-1.36272
-0.131537
0.376564
1.55219
1.91656
2.44765
2.48594
2.07403
1.7706
0.619046
0.139667
-1.14888
-1.54933
-2.33948
-2.44878
-2.34127
-2.09231
-1.12884
-0.641511
0.657747
1.1373
2.09794
2.33084
2.47225
2.3421
1.56751
1.13971
-0.155128
-0.659188
-1.78779
-2.11125
-2.50849
-2.49028
-1.94725
-1.59574
-0.368916
0.135779
1.39593
1.79473
2.43534
2.53111
2.23408
1.98419
0.873093
0.409908
-0.953289
-1.38349
-2.2854
-2.45787
2.21432
2.39256
0.911563
1.33426
-0.868418
-0.421368
-2.20973
-1.95203
-2.40536
-2.49115
-1.37696
-1.76342
0.350593
-0.119444
1.9104
1.57739
2.48087
2.45229
1.77218
2.07631
0.167367
0.621804
-1.5307
-1.1662
-2.44632
-2.34506
-2.08845
-2.32556
-0.660528
-1.11727
1.10726
0.682071
2.32452
2.12708
2.34136
2.47017
1.14762
1.55418
-0.627435
-0.171121
-2.09371
-1.82074
-2.49309
-2.52289
-1.59716
-1.93385
0.116598
-0.35723
1.77231
1.41816
2.53783
2.45874
1.99547
2.22513
0.421991
0.856819
-1.35886
-0.964031
-2.45615
-2.30504
2.23024
0.924262
2.3817
-0.86242
1.32033
-2.19302
-0.430633
-2.40744
-1.97463
-1.39459
-2.49584
0.345012
-1.74365
1.89724
-0.103789
2.46885
1.60409
1.78707
2.48251
0.180392
2.07677
-1.52383
0.615759
-2.43077
-1.16863
-2.09576
-2.35909
-0.686864
-2.31938
1.09276
-1.08711
2.3066
0.702066
2.33154
2.14738
1.17062
2.48306
-0.60474
1.53098
-2.08042
-0.199465
-2.47692
-1.83702
-1.60804
-2.54032
0.087372
-1.92421
1.75997
-0.322951
2.52799
1.43794
1.99625
2.4743
0.452
2.23395
-1.33727
0.836934
-2.45139
-0.978173
-2.2989
0.9322
2.24016
-0.83953
2.39133
-2.18625
1.30301
-2.41586
-0.446468
-1.39322
-1.97719
0.334127
-2.50224
1.88171
-1.72649
2.47581
-0.0642276
1.79163
1.62926
0.183108
2.50423
-1.50492
2.09006
-2.42809
0.595871
-2.11078
-1.18817
-0.695919
-2.36182
1.06941
-2.32199
2.28121
-1.06645
2.33571
0.738884
1.18095
2.15963
-0.590297
2.48327
-2.04966
1.52152
-2.46765
-0.234877
-1.62326
-1.85988
0.0739528
-2.53527
1.73316
-1.91507
2.50405
-0.294863
2.00655
1.47409
0.469102
2.4806
-1.32007
2.23073
-2.42369
0.834488
-2.29507
-0.993881
0.959167
-0.826193
2.24719
-2.18837
2.39519
-2.40999
1.30468
-1.40172
-0.467892
0.318989
-1.98819
1.88724
-2.49036
2.47748
-1.71422
1.79127
-0.0337575
0.201136
1.66788
-1.49862
2.51142
-2.43459
2.08248
-2.10921
0.580472
-0.711911
-1.22424
1.04291
-2.37978
2.27434
-2.30985
2.32919
-1.05274
1.18104
0.765018
-0.563112
2.18577
-2.03007
2.47351
-2.46326
1.50064
-1.6182
-0.251993
0.0536941
-1.88441
1.69901
-2.5343
2.49168
-1.88627
1.99984
-0.27509
0.473353
1.4942
-1.28874
2.49544
-2.40373
2.21497
-2.29366
0.820796
-0.990337
-0.819623
0.979297
-2.17707
2.27398
-2.41853
2.39379
-1.42104
1.29591
0.319524
-0.475608
1.88587
-2.0095
2.47683
-2.49133
1.81104
-1.68919
0.210461
-0.0160207
-1.50069
1.68768
-2.4265
2.52281
-2.11691
2.05474
-0.730807
0.544225
1.03908
-1.25051
2.26336
-2.40657
2.318
-2.30672
1.19531
-1.02192
-0.550598
0.782947
-2.02147
2.19883
-2.4431
2.47727
-1.61942
1.4728
0.0322848
-0.275689
1.68543
-1.88738
2.46954
-2.53653
1.98212
-1.86877
0.487725
-0.246207
-1.27222
1.49643
-2.39206
2.48926
-2.27462
2.20823
-0.99552
0.798113
-0.795587
-2.17797
0.995137
-2.43995
2.2926
-1.43074
2.40703
0.305874
1.27502
1.8772
-0.499886
2.49579
-2.02129
1.82534
-2.50543
0.215265
-1.67991
-1.48693
0.0107331
-2.43028
1.69114
-2.13227
2.51427
-0.730299
2.03483
1.03242
0.496464
2.25382
-1.28629
2.32904
-2.41335
1.20045
-2.30666
-0.549268
-0.999679
-2.00281
0.815313
-2.43682
2.2015
-1.62643
2.4688
0.0330579
1.46242
1.66956
-0.302057
2.44595
-1.89607
1.98141
-2.52171
0.488576
-1.8632
-1.26758
-0.237765
-2.36754
1.50259
-2.26614
2.46613
-1.00663
2.1861
0.790825
-2.18628
-0.778667
-2.44964
1.02965
-1.45765
2.30325
0.278144
2.40546
1.88141
1.26245
2.50613
-0.539533
1.83654
-2.04918
0.239789
-2.50729
-1.48262
-1.68068
-2.44381
0.0245372
-2.13458
1.70726
-0.739862
2.49581
1.0235
2.00517
2.26905
0.469299
2.33868
-1.32156
1.20293
-2.42208
-0.533582
-2.28509
-2.00065
-0.98377
-2.44444
0.834561
-1.62007
2.21665
0.0272029
2.45208
1.65488
1.44434
2.44746
-0.307526
1.97623
-1.9081
0.483004
-2.51786
-1.25001
-1.84754
-2.35687
-0.245545
-2.26599
1.48977
-1.00024
2.45407
0.775379
2.15649
-2.1753
-2.47017
-0.764742
-1.49716
1.05608
0.259366
2.32727
1.87047
2.38997
2.50853
1.23255
1.8673
-0.568076
0.258883
-2.08533
-1.48357
-2.51645
-2.44366
-1.6611
-2.15231
0.0352072
-0.761228
1.71746
1.03054
2.49881
2.27967
1.97625
2.34977
0.442779
1.22864
-1.32929
-0.526295
-2.42918
-2.01022
-2.27
-2.44404
-0.953295
-1.63034
0.84231
0.0134081
2.21794
1.66193
2.45149
2.4482
1.42311
1.97258
-0.31791
0.497672
-1.90052
-1.24343
-2.52137
-2.35651
-1.84596
-2.25196
-0.241706
-1.00276
1.46806
0.757318
2.43377
2.14767
-2.49431
-2.16785
-1.52174
-0.72959
0.225533
1.07594
1.84672
2.33761
2.52486
2.38497
1.89073
1.19182
0.276257
-0.60492
-1.46408
-2.09845
-2.45388
-2.52286
-2.18297
-1.64093
-0.774664
0.0713495
1.0216
1.7288
2.28287
2.50086
2.38242
1.97421
1.25192
0.420592
-0.521266
-1.33724
-2.00489
-2.41462
-2.46051
-2.26217
-1.65614
-0.937511
0.0105555
0.860804
1.66004
2.20947
2.44877
2.4422
1.99376
1.42306
0.508327
-0.32942
-1.24272
-1.89928
-2.34298
-2.50748
-2.25155
-1.85102
-1.01252
-0.246237
0.759785
1.46764
2.13638
2.41444
-2.4946
-1.55255
-2.15971
0.182898
-0.699862
1.8347
1.11133
2.52813
2.33691
1.90824
2.36756
0.315587
1.1696
-1.44757
-0.640574
-2.46788
-2.10855
-2.20049
-2.4995
-0.806657
-1.61673
0.995559
0.10584
2.29595
1.76276
2.40529
2.50219
1.27365
1.96958
-0.493577
0.421872
-2.00686
-1.34763
-2.4873
-2.40998
-1.67343
-2.24225
-0.00992411
-0.934929
1.64797
0.864068
2.46824
2.21595
2.01149
2.42903
0.518304
1.4182
-1.22361
-0.31939
-2.34214
-1.90102
-2.26296
-2.50092
-1.00927
-1.83601
0.75389
-0.250789
2.12536
1.46669
2.42137
-1.5831
-2.4952
0.158876
-2.1283
1.81038
-0.675496
2.52033
1.13455
1.94108
2.34949
0.349469
2.3438
-1.43002
1.14477
-2.45815
-0.647975
-2.22576
-2.11291
-0.850866
-2.47594
0.975624
-1.57139
2.28912
0.133691
2.41607
1.78582
1.31326
2.51948
-0.469764
1.95877
-2.01011
0.414096
-2.49663
-1.34265
-1.70493
-2.41616
-0.0445201
-2.23847
1.64634
-0.921872
2.47652
0.857332
2.02575
2.21273
0.549586
2.43542
-1.21178
1.41079
-2.35004
-0.316185
-2.26384
-1.88418
-1.02211
-2.49823
0.738813
-1.82583
2.13388
-0.230738
2.42632
1.46886
-1.58833
0.130626
-2.49493
1.7787
-2.10324
2.52458
-0.636855
1.96033
1.14617
0.377043
2.35036
-1.38958
2.33972
-2.44863
1.12116
-2.25066
-0.655133
-0.877795
-2.09448
0.939768
-2.45959
2.26547
-1.54195
2.43495
0.168402
1.34058
1.7925
-0.449097
2.52017
-1.99021
1.96014
-2.51062
0.396128
-1.7429
-1.35145
-0.0670516
-2.41062
1.62897
-2.24616
2.47428
-0.922215
2.0567
0.866097
0.574215
2.20418
-1.20381
2.43367
-2.3422
1.42076
-2.2796
-0.319951
-1.04891
-1.87814
0.734139
-2.47834
2.13084
-1.81841
2.42804
-0.214307
1.49385
0.102173
-1.59554
1.76542
-2.47456
2.51543
-2.08752
1.966
-0.613951
0.416746
1.16846
-1.35701
2.34276
-2.43826
2.33004
-2.24914
1.11989
-0.907506
-0.666572
0.897266
-2.08958
2.2523
-2.4382
2.43605
-1.53546
1.35584
0.177651
-0.41136
1.80311
-1.97424
2.50551
-2.5241
1.94656
-1.75982
0.391426
-0.0994645
-1.36951
1.6011
-2.4172
2.48422
-2.23863
2.07604
-0.929123
0.593549
0.86565
-1.17666
2.21268
-2.34308
2.42454
-2.30455
1.41758
-1.06524
-0.311981
0.712656
-1.88297
2.11631
-2.47059
2.44495
-1.79377
1.51075
-0.201829
0.0965525
1.74661
-1.60615
2.49738
-2.46597
1.98076
-2.06293
0.438193
-0.606975
-1.3361
1.17593
-2.40908
2.35158
-2.24889
2.31629
-0.934292
1.11043
0.877418
-0.666866
2.22946
-2.10488
2.42537
-2.44412
1.38189
-1.5302
-0.385415
0.166128
-1.96185
1.79557
-2.51421
2.50315
-1.77953
1.92459
-0.134966
0.376892
1.58909
-1.36966
2.48128
-2.42808
2.08598
-2.23856
0.629088
-0.917235
-1.15718
0.859938
-2.34804
2.21003
-2.31248
2.42786
-1.09394
1.40144
0.679798
-0.321715
2.11319
-1.87824
2.4485
-2.47381
1.51964
-1.78109
-0.173704
1.72615
0.0855393
2.49726
-1.60183
1.98086
-2.47224
0.442601
-2.05824
-1.30872
-0.591594
-2.39422
1.17384
-2.25282
2.35333
-0.936333
2.32123
0.856983
1.09063
2.20495
-0.687147
2.43081
-2.11933
1.3943
-2.4722
-0.369958
-1.5439
-1.93302
0.167959
-2.50968
1.78162
-1.79938
2.49297
-0.148434
1.9222
1.56953
0.360023
2.47042
-1.37454
2.10975
-2.41685
0.653287
-2.24014
-1.14348
-0.912622
-2.3338
0.870907
-2.32735
2.19835
-1.12789
2.41568
0.662586
1.39431
2.09794
-0.345796
2.443
-1.89046
1.54282
-2.4656
-0.157614
-1.77796
1.72764
2.49297
0.0678866
1.97397
-1.61338
0.456483
-2.47264
-1.3022
-2.07
-2.39651
-0.588893
-2.24455
1.19135
-0.944942
2.35335
0.83736
2.31888
2.20455
1.0821
2.43031
-0.725504
1.39872
-2.15319
-0.341807
-2.4867
-1.91673
-1.55906
-2.51142
0.169962
-1.7989
1.79248
-0.166563
2.48135
1.54681
1.91467
2.47661
0.366148
2.1219
-1.37851
0.668456
-2.40944
-1.11422
-2.22109
-2.32791
-0.912649
-2.34559
0.871085
-1.14171
2.20058
0.638436
2.39322
2.07779
1.37223
2.45446
-0.358644
1.55575
-1.91378
-0.149174
-2.47094
-1.76067
2.48954
1.72337
1.98987
0.0630104
0.460698
-1.64147
-1.31011
-2.49192
-2.39351
-2.06898
-2.25522
-0.589037
-0.963832
1.20915
0.83742
2.37825
2.20127
2.31099
2.42873
1.0592
1.42133
-0.753826
-0.325854
-2.19329
-1.91168
-2.49717
-2.49992
-1.5375
-1.80832
0.181087
-0.189007
1.80089
1.54364
2.48928
2.47471
1.90458
2.12667
0.368093
0.697742
-1.35983
-1.09708
-2.40419
-2.32943
-2.21082
-2.34589
-0.896358
-1.16194
0.864794
0.612168
2.19296
2.07858
2.38769
2.45975
1.34386
1.56463
-0.382382
-0.123356
-1.92216
-1.75382
-2.4841
2.51021
2.00715
1.71192
0.465643
0.0413828
-1.30119
-1.6625
-2.40698
-2.52296
-2.28294
-2.0727
-0.974089
-0.560337
0.825766
1.23365
2.19445
2.40262
2.44918
2.3196
1.43804
1.02379
-0.317183
-0.791762
-1.89437
-2.20395
-2.5036
-2.48972
-1.82858
-1.50188
-0.196191
0.217612
1.53189
1.80057
2.4678
2.48442
2.14846
1.91311
0.715949
0.368217
-1.08925
-1.34899
-2.31716
-2.38318
-2.35731
-2.20882
-1.18788
-0.891192
0.605488
0.877115
2.07422
2.18424
2.46373
2.3782
1.59442
1.33686
-0.104699
-0.409906
-1.75248
-1.94001
-2.48087
2.02854
2.5251
0.500257
1.71191
-1.29304
0.00315092
-2.42674
-1.69925
-2.30041
-2.53491
-1.00251
-2.07136
0.801217
-0.523817
2.2034
1.28829
2.46364
2.4239
1.45244
2.31453
-0.290081
0.998564
-1.88895
-0.833747
-2.51961
-2.20401
-1.83861
-2.44127
-0.217516
-1.46761
1.51189
0.228645
2.47823
1.804
2.16206
2.47008
0.727995
1.91342
-1.06633
0.386294
-2.31766
-1.34701
-2.37881
-2.37863
-1.19977
-2.19543
0.588784
-0.8921
2.06573
0.885382
2.4885
2.20201
1.61906
2.37262
-0.0890421
1.32682
-1.73341
-0.41811
-2.48795
-1.9642
2.07301
0.538802
2.52991
-1.27809
1.69296
-2.42175
-0.0276663
-2.32717
-1.74461
-1.04369
-2.54681
0.786086
-2.03704
2.19887
-0.478973
2.47213
1.34119
1.48749
2.45769
-0.268582
2.29057
-1.88952
0.956329
-2.5224
-0.855445
-1.8643
-2.19764
-0.251681
-2.39465
1.50459
-1.44763
2.47839
0.193112
2.17087
1.78337
0.759056
2.474
-1.05195
1.91198
-2.32607
0.391493
-2.38743
-1.33787
-1.2261
-2.39061
0.561767
-2.19812
2.07245
-0.873986
2.50506
0.897452
1.64065
2.22231
-0.0537581
2.39367
-1.72337
1.31519
-2.50322
-0.436755
-1.97466
0.578302
2.10667
-1.23318
2.54154
-2.41389
1.65497
-2.35483
-0.0739965
-1.06965
-1.76936
0.755663
-2.55309
2.18187
-1.99696
2.49538
-0.409261
1.51571
1.38341
-0.248866
2.4695
-1.86957
2.26799
-2.53431
0.897834
-1.90013
-0.890855
-0.274828
-2.17823
1.48274
-2.37476
2.46977
-1.49008
2.19759
0.149995
0.784236
1.76125
-1.0402
2.47686
-2.31606
1.93036
-2.40728
0.383152
-1.26355
-1.35379
0.545446
-2.39878
2.06476
-2.21076
2.51349
-0.860187
1.68016
0.937721
-0.0257992
2.24758
-1.71887
2.41013
-2.50473
1.31863
-2.00085
-0.467427
0.633812
-1.18983
2.12377
-2.40168
2.53015
-2.35708
1.62301
-1.10244
-0.129069
0.71496
-1.79518
2.17558
-2.53059
2.50512
-1.95638
1.53753
-0.351034
-0.20804
1.42895
-1.85312
2.45612
-2.54868
2.22595
-1.91883
0.850951
-0.31052
-0.952368
1.44975
-2.18248
2.47451
-2.36272
2.21476
-1.54056
0.806435
0.133544
-1.0062
1.77964
-2.3106
2.48854
-2.43166
1.93706
-1.28667
0.376873
0.51381
-1.39273
2.04418
-2.4281
2.53418
-2.20698
1.70925
-0.84394
-0.00206826
0.978243
-1.69584
2.29486
-2.51768
2.41802
-2.04003
1.3036
-0.491457
-1.15362
0.671491
-2.3665
2.14348
-2.36085
2.49861
-1.13774
1.57612
0.689684
-0.163758
2.15456
-1.8188
2.50238
-2.50964
1.57357
-1.90084
-0.174285
-0.31293
-1.83743
1.44755
-2.5398
2.44649
-1.94272
2.17914
-0.35237
0.80331
1.43074
-0.988407
2.46619
-2.18837
2.22363
-2.36983
0.847131
-1.51754
-0.976443
0.168335
-2.3049
1.81398
-2.43419
2.52567
-1.31821
1.92875
0.472307
0.34175
2.03396
-1.43065
2.53937
-2.46862
1.72963
-2.20854
0.040252
-0.802011
-1.67848
1.0185
-2.53493
2.32979
-2.06637
2.43237
-0.535447
1.26933
-1.10753
-2.34045
0.689702
-2.36713
2.1409
-1.1523
2.47611
0.655278
1.52323
2.12249
-0.199547
2.5099
-1.81761
1.59521
-2.49537
-0.148113
-1.86452
-1.80129
-0.276238
-2.53378
1.4425
-1.96689
2.42688
-0.373998
2.16688
1.402
0.784189
2.44829
-0.968492
2.2459
-2.16101
0.877384
-2.38683
-0.950361
-1.47603
-2.27651
0.235834
-2.43957
1.85517
-1.35193
2.54828
0.44716
1.92001
2.00949
0.283805
2.532
-1.48737
1.76283
-2.49023
0.0740931
-2.20717
-1.66161
-0.762718
-2.52887
1.07484
-2.1001
2.34907
-0.591058
2.42253
1.23927
-2.32557
-1.08
-2.35596
0.713649
-1.17338
2.124
0.615152
2.44486
2.10446
1.49477
2.50219
-0.232621
1.60364
-1.82068
-0.109265
-2.47009
-1.77429
-1.85104
-2.5302
-0.265979
-1.96832
1.44516
-0.400015
2.40741
1.36854
2.16805
2.44529
0.824721
2.25464
-0.915225
0.897387
-2.15977
-0.908475
-2.40061
-2.25465
-1.45686
-2.44565
0.285036
-1.36328
1.90918
0.41493
2.55043
1.97641
1.88361
2.53571
0.23251
1.78113
-1.54843
0.10078
-2.51211
-1.62256
-2.17877
-2.5226
-0.725976
-2.13099
1.11477
-0.627415
2.37162
1.19291
2.39332
-2.29929
-2.3553
-1.06688
-1.19953
0.72301
0.593743
2.12448
2.07668
2.41433
2.48392
1.46898
1.62277
-0.239734
-0.0854916
-1.83032
-1.75703
-2.46328
-2.50926