# vtk DataFile Version 3.1
vtk output
ASCII
DATASET POLYDATA
POINTS 4260 FLOAT
2.83277e-16          -1    -3.14159
-0.104528 -0.994522  -3.14159
 0.104528 -0.994522  -3.14159
-0.207912 -0.978148  -3.14159
 0.207912 -0.978148  -3.14159
-0.309017 -0.951057  -3.14159
 0.309017 -0.951057  -3.14159
-0.406737 -0.913545  -3.14159
 0.406737 -0.913545  -3.14159
     -0.5 -0.866025  -3.14159
      0.5 -0.866025  -3.14159
-0.587785 -0.809017  -3.14159
 0.587785 -0.809017  -3.14159
-0.669131 -0.743145  -3.14159
 0.669131 -0.743145  -3.14159
-0.743145 -0.669131  -3.14159
 0.743145 -0.669131  -3.14159
-0.809017 -0.587785  -3.14159
 0.809017 -0.587785  -3.14159
-0.866025      -0.5  -3.14159
0.866025     -0.5 -3.14159
-0.913545 -0.406737  -3.14159
 0.913545 -0.406737  -3.14159
-0.951057 -0.309017  -3.14159
 0.951057 -0.309017  -3.14159
-0.978148 -0.207912  -3.14159
 0.978148 -0.207912  -3.14159
-0.994522 -0.104528  -3.14159
 0.994522 -0.104528  -3.14159
          -1 -5.66554e-16     -3.14159
       1        0 -3.14159
-0.994522  0.104528  -3.14159
0.994522 0.104528 -3.14159
-0.978148  0.207912  -3.14159
0.978148 0.207912 -3.14159
-0.951057  0.309017  -3.14159
0.951057 0.309017 -3.14159
-0.913545  0.406737  -3.14159
0.913545 0.406737 -3.14159
-0.866025       0.5  -3.14159
0.866025      0.5 -3.14159
-0.809017  0.587785  -3.14159
0.809017 0.587785 -3.14159
-0.743145  0.669131  -3.14159
0.743145 0.669131 -3.14159
-0.669131  0.743145  -3.14159
0.669131 0.743145 -3.14159
-0.587785  0.809017  -3.14159
0.587785 0.809017 -3.14159
    -0.5 0.866025 -3.14159
     0.5 0.866025 -3.14159
-0.406737  0.913545  -3.14159
0.406737 0.913545 -3.14159
-0.309017  0.951057  -3.14159
0.309017 0.951057 -3.14159
-0.207912  0.978148  -3.14159
0.207912 0.978148 -3.14159
-0.104528  0.994522  -3.14159
0.104528 0.994522 -3.14159
-1.83697e-16            1     -3.14159
-0.052336  -0.99863   -3.0509
0.052336 -0.99863  -3.0509
-0.156434 -0.987688   -3.0509
 0.156434 -0.987688   -3.0509
-0.258819 -0.965926   -3.0509
 0.258819 -0.965926   -3.0509
-0.358368  -0.93358   -3.0509
0.358368 -0.93358  -3.0509
 -0.45399 -0.891007   -3.0509
  0.45399 -0.891007   -3.0509
-0.544639 -0.838671   -3.0509
 0.544639 -0.838671   -3.0509
 -0.62932 -0.777146   -3.0509
  0.62932 -0.777146   -3.0509
-0.707107 -0.707107   -3.0509
 0.707107 -0.707107   -3.0509
-0.777146  -0.62932   -3.0509
0.777146 -0.62932  -3.0509
-0.838671 -0.544639   -3.0509
 0.838671 -0.544639   -3.0509
-0.891007  -0.45399   -3.0509
0.891007 -0.45399  -3.0509
 -0.93358 -0.358368   -3.0509
  0.93358 -0.358368   -3.0509
-0.965926 -0.258819   -3.0509
 0.965926 -0.258819   -3.0509
-0.987688 -0.156434   -3.0509
 0.987688 -0.156434   -3.0509
 -0.99863 -0.052336   -3.0509
  0.99863 -0.052336   -3.0509
-0.99863 0.052336  -3.0509
 0.99863 0.052336  -3.0509
-0.987688  0.156434   -3.0509
0.987688 0.156434  -3.0509
-0.965926  0.258819   -3.0509
0.965926 0.258819  -3.0509
-0.93358 0.358368  -3.0509
 0.93358 0.358368  -3.0509
-0.891007   0.45399   -3.0509
0.891007  0.45399  -3.0509
-0.838671  0.544639   -3.0509
0.838671 0.544639  -3.0509
-0.777146   0.62932   -3.0509
0.777146  0.62932  -3.0509
-0.707107  0.707107   -3.0509
0.707107 0.707107  -3.0509
-0.62932 0.777146  -3.0509
 0.62932 0.777146  -3.0509
-0.544639  0.838671   -3.0509
0.544639 0.838671  -3.0509
-0.45399 0.891007  -3.0509
 0.45399 0.891007  -3.0509
-0.358368   0.93358   -3.0509
0.358368  0.93358  -3.0509
-0.258819  0.965926   -3.0509
0.258819 0.965926  -3.0509
-0.156434  0.987688   -3.0509
0.156434 0.987688  -3.0509
-0.052336   0.99863   -3.0509
0.052336  0.99863  -3.0509
6.12323e-17          -1    -2.96021
-0.104528 -0.994522  -2.96021
 0.104528 -0.994522  -2.96021
-0.207912 -0.978148  -2.96021
 0.207912 -0.978148  -2.96021
-0.309017 -0.951057  -2.96021
 0.309017 -0.951057  -2.96021
-0.406737 -0.913545  -2.96021
 0.406737 -0.913545  -2.96021
     -0.5 -0.866025  -2.96021
      0.5 -0.866025  -2.96021
-0.587785 -0.809017  -2.96021
 0.587785 -0.809017  -2.96021
-0.669131 -0.743145  -2.96021
 0.669131 -0.743145  -2.96021
-0.743145 -0.669131  -2.96021
 0.743145 -0.669131  -2.96021
-0.809017 -0.587785  -2.96021
 0.809017 -0.587785  -2.96021
-0.866025      -0.5  -2.96021
0.866025     -0.5 -2.96021
-0.913545 -0.406737  -2.96021
 0.913545 -0.406737  -2.96021
-0.951057 -0.309017  -2.96021
 0.951057 -0.309017  -2.96021
-0.978148 -0.207912  -2.96021
 0.978148 -0.207912  -2.96021
-0.994522 -0.104528  -2.96021
 0.994522 -0.104528  -2.96021
          -1 -5.66554e-16     -2.96021
          1 2.77556e-17    -2.96021
-0.994522  0.104528  -2.96021
0.994522 0.104528 -2.96021
-0.978148  0.207912  -2.96021
0.978148 0.207912 -2.96021
-0.951057  0.309017  -2.96021
0.951057 0.309017 -2.96021
-0.913545  0.406737  -2.96021
0.913545 0.406737 -2.96021
-0.866025       0.5  -2.96021
0.866025      0.5 -2.96021
-0.809017  0.587785  -2.96021
0.809017 0.587785 -2.96021
-0.743145  0.669131  -2.96021
0.743145 0.669131 -2.96021
-0.669131  0.743145  -2.96021
0.669131 0.743145 -2.96021
-0.587785  0.809017  -2.96021
0.587785 0.809017 -2.96021
    -0.5 0.866025 -2.96021
     0.5 0.866025 -2.96021
-0.406737  0.913545  -2.96021
0.406737 0.913545 -2.96021
-0.309017  0.951057  -2.96021
0.309017 0.951057 -2.96021
-0.207912  0.978148  -2.96021
0.207912 0.978148 -2.96021
-0.104528  0.994522  -2.96021
0.104528 0.994522 -2.96021
-1.83697e-16            1     -2.96021
-0.052336  -0.99863  -2.86952
0.052336 -0.99863 -2.86952
-0.156434 -0.987688  -2.86952
 0.156434 -0.987688  -2.86952
-0.258819 -0.965926  -2.86952
 0.258819 -0.965926  -2.86952
-0.358368  -0.93358  -2.86952
0.358368 -0.93358 -2.86952
 -0.45399 -0.891007  -2.86952
  0.45399 -0.891007  -2.86952
-0.544639 -0.838671  -2.86952
 0.544639 -0.838671  -2.86952
 -0.62932 -0.777146  -2.86952
  0.62932 -0.777146  -2.86952
-0.707107 -0.707107  -2.86952
 0.707107 -0.707107  -2.86952
-0.777146  -0.62932  -2.86952
0.777146 -0.62932 -2.86952
-0.838671 -0.544639  -2.86952
 0.838671 -0.544639  -2.86952
-0.891007  -0.45399  -2.86952
0.891007 -0.45399 -2.86952
 -0.93358 -0.358368  -2.86952
  0.93358 -0.358368  -2.86952
-0.965926 -0.258819  -2.86952
 0.965926 -0.258819  -2.86952
-0.987688 -0.156434  -2.86952
 0.987688 -0.156434  -2.86952
 -0.99863 -0.052336  -2.86952
  0.99863 -0.052336  -2.86952
-0.99863 0.052336 -2.86952
 0.99863 0.052336 -2.86952
-0.987688  0.156434  -2.86952
0.987688 0.156434 -2.86952
-0.965926  0.258819  -2.86952
0.965926 0.258819 -2.86952
-0.93358 0.358368 -2.86952
 0.93358 0.358368 -2.86952
-0.891007   0.45399  -2.86952
0.891007  0.45399 -2.86952
-0.838671  0.544639  -2.86952
0.838671 0.544639 -2.86952
-0.777146   0.62932  -2.86952
0.777146  0.62932 -2.86952
-0.707107  0.707107  -2.86952
0.707107 0.707107 -2.86952
-0.62932 0.777146 -2.86952
 0.62932 0.777146 -2.86952
-0.544639  0.838671  -2.86952
0.544639 0.838671 -2.86952
-0.45399 0.891007 -2.86952
 0.45399 0.891007 -2.86952
-0.358368   0.93358  -2.86952
0.358368  0.93358 -2.86952
-0.258819  0.965926  -2.86952
0.258819 0.965926 -2.86952
-0.156434  0.987688  -2.86952
0.156434 0.987688 -2.86952
-0.052336   0.99863  -2.86952
0.052336  0.99863 -2.86952
6.12323e-17          -1    -2.77883
-0.104528 -0.994522  -2.77883
 0.104528 -0.994522  -2.77883
-0.207912 -0.978148  -2.77883
 0.207912 -0.978148  -2.77883
-0.309017 -0.951057  -2.77883
 0.309017 -0.951057  -2.77883
-0.406737 -0.913545  -2.77883
 0.406737 -0.913545  -2.77883
     -0.5 -0.866025  -2.77883
      0.5 -0.866025  -2.77883
-0.587785 -0.809017  -2.77883
 0.587785 -0.809017  -2.77883
-0.669131 -0.743145  -2.77883
 0.669131 -0.743145  -2.77883
-0.743145 -0.669131  -2.77883
 0.743145 -0.669131  -2.77883
-0.809017 -0.587785  -2.77883
 0.809017 -0.587785  -2.77883
-0.866025      -0.5  -2.77883
0.866025     -0.5 -2.77883
-0.913545 -0.406737  -2.77883
 0.913545 -0.406737  -2.77883
-0.951057 -0.309017  -2.77883
 0.951057 -0.309017  -2.77883
-0.978148 -0.207912  -2.77883
 0.978148 -0.207912  -2.77883
-0.994522 -0.104528  -2.77883
 0.994522 -0.104528  -2.77883
          -1 -1.22465e-16     -2.77883
          1 5.55112e-17    -2.77883
-0.994522  0.104528  -2.77883
0.994522 0.104528 -2.77883
-0.978148  0.207912  -2.77883
0.978148 0.207912 -2.77883
-0.951057  0.309017  -2.77883
0.951057 0.309017 -2.77883
-0.913545  0.406737  -2.77883
0.913545 0.406737 -2.77883
-0.866025       0.5  -2.77883
0.866025      0.5 -2.77883
-0.809017  0.587785  -2.77883
0.809017 0.587785 -2.77883
-0.743145  0.669131  -2.77883
0.743145 0.669131 -2.77883
-0.669131  0.743145  -2.77883
0.669131 0.743145 -2.77883
-0.587785  0.809017  -2.77883
0.587785 0.809017 -2.77883
    -0.5 0.866025 -2.77883
     0.5 0.866025 -2.77883
-0.406737  0.913545  -2.77883
0.406737 0.913545 -2.77883
-0.309017  0.951057  -2.77883
0.309017 0.951057 -2.77883
-0.207912  0.978148  -2.77883
0.207912 0.978148 -2.77883
-0.104528  0.994522  -2.77883
0.104528 0.994522 -2.77883
-1.83697e-16            1     -2.77883
-0.052336  -0.99863  -2.68814
0.052336 -0.99863 -2.68814
-0.156434 -0.987688  -2.68814
 0.156434 -0.987688  -2.68814
-0.258819 -0.965926  -2.68814
 0.258819 -0.965926  -2.68814
-0.358368  -0.93358  -2.68814
0.358368 -0.93358 -2.68814
 -0.45399 -0.891007  -2.68814
  0.45399 -0.891007  -2.68814
-0.544639 -0.838671  -2.68814
 0.544639 -0.838671  -2.68814
 -0.62932 -0.777146  -2.68814
  0.62932 -0.777146  -2.68814
-0.707107 -0.707107  -2.68814
 0.707107 -0.707107  -2.68814
-0.777146  -0.62932  -2.68814
0.777146 -0.62932 -2.68814
-0.838671 -0.544639  -2.68814
 0.838671 -0.544639  -2.68814
-0.891007  -0.45399  -2.68814
0.891007 -0.45399 -2.68814
 -0.93358 -0.358368  -2.68814
  0.93358 -0.358368  -2.68814
-0.965926 -0.258819  -2.68814
 0.965926 -0.258819  -2.68814
-0.987688 -0.156434  -2.68814
 0.987688 -0.156434  -2.68814
 -0.99863 -0.052336  -2.68814
  0.99863 -0.052336  -2.68814
-0.99863 0.052336 -2.68814
 0.99863 0.052336 -2.68814
-0.987688  0.156434  -2.68814
0.987688 0.156434 -2.68814
-0.965926  0.258819  -2.68814
0.965926 0.258819 -2.68814
-0.93358 0.358368 -2.68814
 0.93358 0.358368 -2.68814
[...]
POINT_DATA 4260
SCALARS Field double
LOOKUP_TABLE default
1.4338
-0.304919
2.43301
-1.88789
2.17965
-2.50145
0.804968
-1.82934
-0.985438
-0.214398
-2.27092
1.51312
-2.39017
2.46494
-1.28288
2.15216
0.482611
0.732813
2.00018
-1.06556
2.48968
-2.3185
1.70045
-2.3834
0.0389645
-1.22606
-1.64176
0.5618
-2.4779
2.06211
-2.03939
2.5054
-0.552444
1.6657
1.21883
-0.027221
2.36459
-1.70468
2.29498
-2.50536
1.04522
-2.02073
-0.742428
-0.500665
-2.15046
1.27468
-2.45562
2.39264
-1.50029
2.28044
0.224157
0.998241
1.83158
-0.795015
2.49687
-2.17707
1.87753
-2.43724
0.291829
-1.44382
-0.283181
1.45127
-1.87296
2.43944
-2.50046
2.17286
-1.84163
0.788483
-0.234758
-1.00164
1.49468
-2.27849
2.4584
-2.38638
2.15961
-1.26912
0.750185
0.498656
-1.04609
2.00876
-2.30746
2.48671
-2.3859
1.68665
-1.2391
0.0197414
0.54467
-1.65622
2.05004
-2.48074
2.50561
-2.03028
1.6768
-0.534996
-0.0116786
1.2359
-1.6925
2.37208
-2.50438
2.29059
-2.03191
1.03174
-0.517287
-0.758331
1.26053
-2.15897
2.38856
-2.4518
2.28985
-1.48654
1.01553
0.241989
-0.778916
1.84414
-2.1698
2.49635
-2.44396
1.8645
-1.46177
0.272118
-0.261324
-1.858
1.46996
-2.49831
2.44594
-1.85409
2.16626
-0.25583
0.773262
1.47614
-1.01777
2.45024
-2.2858
2.16532
-2.381
0.767545
-1.2547
-1.02678
0.515611
-2.29565
2.01919
-2.38586
2.48389
-1.25089
1.67235
0.527749
0.000475129
2.03799
-1.6722
2.50352
-2.48481
1.68496
-2.02072
0.00244998
-0.517643
-1.68174
1.25336
-2.50355
2.38106
-2.04092
2.28619
-0.532358
1.018
1.24762
-0.773477
2.38619
-2.16756
2.29897
-2.44732
1.03167
-1.47033
-0.763271
0.2615
-2.16424
1.85839
-2.4523
2.49809
-1.47973
1.85176
0.251971
-1.84276
-0.240707
-2.4965
1.48741
-1.86651
2.4524
-0.275463
2.15863
1.45775
0.7574
2.44159
-1.03305
2.17107
-2.29298
0.783409
-2.37488
-1.009
-1.23803
-2.28367
0.533686
-2.38598
2.0305
-1.2623
2.4824
0.512537
1.65752
2.02616
-0.019671
2.50081
-1.68797
1.69298
-2.4895
0.0150298
-2.01125
-1.6724
-0.499066
-2.50229
1.27065
-2.04986
2.3894
-0.546896
2.28166
1.23658
1.00266
2.38437
-0.789864
2.30812
-2.17554
1.0486
-2.44247
-0.748249
-1.45288
-2.15954
0.283661
-2.46035
1.87391
-1.49837
2.50065
0.231392
1.8403
-1.82944
-2.49599
-0.221213
-1.87813
1.50257
-0.294489
2.45688
1.44039
2.15051
2.43506
0.740326
2.17713
-1.04886
0.798448
-2.29891
-0.991797
-2.3681
-2.27378
-1.2203
-2.38806
0.553859
-1.27373
2.04229
0.497136
2.48092
2.01476
1.64338
2.49999
-0.0403788
1.70163
-1.70395
0.0277305
-2.49297
-1.66216
-2.00166
-2.50149
-0.480632
-2.0594
1.28813
-0.560786
2.39586
1.22519
2.27473
2.38218
0.986003
2.31819
-0.808175
1.06548
-2.1844
-0.733193
-2.43646
-2.1535
-1.4349
-2.46815
0.306532
-1.51696
1.89099
0.211894
2.50326
1.82879
-2.49634
-1.81859
-1.89082
-0.204164
-0.313531
1.51655
1.42531
2.45926
2.43032
2.1407
2.18473
0.723129
0.815281
-1.06541
-0.975298
-2.30488
-2.26599
-2.35981
-2.39176
-1.20209
-1.28772
0.574404
0.480045
2.05518
2.0042
2.47905
2.50017
1.62892
1.71192
-0.0600074
0.0433362
-1.71965
-1.65061
-2.49589
-2.50028
-1.99072
-2.0682
-0.46286
-0.575722
1.30398
1.21227
2.4009
2.37963
2.26483
2.32714
0.966732
1.08177
-0.82726
-0.716802
-2.1944
-2.14661
-2.43095
-2.47489
-1.41617
-1.53345
0.328828
0.19291
1.90745
1.81712
2.50646
-2.49854
-1.90517
-1.80842
-0.332269
-0.188818
1.41055
1.52904
2.42692
2.46132
2.19549
2.12948
0.833952
0.704846
-0.958119
-1.08156
-2.2579
-2.31126
-2.39769
-2.35164
-1.30477
-1.18296
0.461352
0.594424
1.99212
2.06742
2.50034
2.4777
1.72486
1.61419
0.0613247
-0.0792384
-1.63679
-1.73343
-2.49639
-2.49815
-2.07665
-1.97966
-0.591655
-0.444848
1.19858
1.31791
2.37478
2.40356
2.33388
2.25367
1.09779
0.945466
-0.70072
-0.847691
-2.13904
-2.20432
-2.47905
-2.42662
-1.54834
-1.39886
0.174903
0.350555
1.80665
1.92228
2.50877
-1.91955
-2.50151
-0.352265
-1.79855
1.39488
-0.172525
2.42474
1.5411
2.20743
2.46273
0.854392
2.1185
-0.938112
0.685611
-2.24907
-1.09843
-2.40445
-2.31716
-1.3228
-2.34425
0.439939
-1.16479
1.97759
0.614365
2.50046
2.07844
1.73821
2.47566
0.0809301
1.60062
-1.61958
-0.0978401
-2.49051
-1.74622
-2.08417
-2.49858
-0.60682
-1.96866
1.1833
-0.427598
2.36743
1.33168
2.33913
2.40483
1.11169
2.24154
-0.68582
0.924725
-2.13024
-0.868711
-2.48205
-2.21514
-1.56169
-2.42281
0.159338
-1.38391
1.79657
0.369822
2.51013
1.93627
-1.93371
-0.373141
-2.50233
1.37888
-1.78738
2.42121
-0.155133
2.21872
1.55475
0.876498
2.4639
-0.916672
2.107
-2.23877
0.666838
-2.40925
-1.11606
-1.3412
-2.32389
0.416898
-2.33694
1.96206
-1.14824
2.49875
0.632674
1.75058
2.08927
0.101904
2.47298
-1.60124
1.5873
-2.48332
-0.114511
-2.08962
-1.75819
-0.621888
-2.49847
1.16701
-1.95653
2.35942
-0.410696
2.34219
1.34533
1.1234
2.40755
-0.671348
2.23013
-2.12205
0.904824
-2.48477
-0.888367
-1.57289
-2.22686
0.144914
-2.42094
1.78695
-1.37051
2.51201
0.386406
1.94847
-0.392421
-1.94615
1.36183
-2.50072
2.41547
-1.77291
2.22887
-0.136412
0.897179
1.56891
-0.895416
2.4661
-2.22628
2.09509
-2.4125
0.647709
-1.35853
-1.13309
0.395156
-2.33158
1.94569
-2.33102
2.49549
-1.13233
1.76257
0.649222
0.121855
2.09898
-1.58339
2.47107
-2.47501
1.57425
-2.09495
-0.130575
-0.637137
-1.76863
1.15136
-2.49834
2.35056
-1.94438
2.34403
-0.392293
1.13496
1.36006
-0.658061
2.41221
-2.11484
2.22206
-2.48681
0.88661
-1.58399
-0.907402
0.130843
-2.23828
1.77877
-2.42111
2.51364
-1.35951
1.9594
0.402045
-0.409861
1.34486
-1.95478
2.40916
-2.49665
2.23611
-1.75677
0.914733
-0.115968
-0.875112
1.58293
-2.21427
2.46807
-2.41488
2.08424
-1.37307
0.628546
0.374941
-1.1503
1.92996
-2.33893
2.49307
-2.32653
1.77351
-1.11802
0.140282
0.665557
-1.56593
2.10793
-2.46806
2.46911
-2.10154
1.56248
-0.652208
-0.146753
1.13509
-1.77948
2.34137
-2.49766
2.34701
-1.93242
1.14664
-0.373
-0.644923
1.37793
-2.10693
2.41958
-2.48954
2.21673
-1.59593
0.871354
0.117314
-0.926032
1.77032
-2.25047
2.51499
-2.42166
1.97096
-1.35007
0.416677
1.33037
-0.425086
2.40246
-1.9613
2.241
-2.49038
0.929996
-1.74081
-0.858151
-0.0963042
-2.20454
1.59732
-2.41666
2.4698
-1.38662
2.07381
0.356388
0.611035
1.91699
-1.16749
2.4916
-2.34687
1.78437
-2.32204
0.158942
-1.1049
-1.55002
0.681225
-2.46316
2.11783
-2.10914
2.46706
-0.669194
1.55035
1.11744
-0.162868
2.33292
-1.79194
2.35065
-2.49832
1.15956
-1.91976
-0.629312
-0.352828
-2.09829
1.39794
-2.49264
2.43062
-1.60793
2.21345
0.102267
0.857208
1.76054
-0.943502
2.51686
-2.26329
1.98251
-2.42273
0.431346
-1.33969
1.3176
2.3966
-0.437856
2.24632
-1.96781
0.942936
-2.48542
-0.844507
-1.72583
-2.19672
-0.0785921
-2.42031
1.61086
-1.40062
2.47296
0.339825
2.0643
1.90551
0.594421
2.49146
-1.18336
1.79721
-2.35539
0.177714
-2.31829
-1.53489
-1.09109
-2.45865
0.696917
-2.11884
2.12804
-0.68863
2.46596
1.09886
1.53696
2.32345
-0.181164
2.35461
-1.80586
1.17535
-2.5011
-0.611289
-1.90789
-2.08773
-0.330989
-2.49394
1.41922
-1.62085
2.44298
0.0850625
2.21191
1.74962
0.842887
2.5173
-0.961311
1.99382
-2.27495
0.44801
-2.42313
-1.32811
2.39325
1.30556
2.25248
-0.451344
0.955317
-1.97565
-0.831551
-2.48398
-2.19136
-1.71406
-2.42629
-0.0616548
-1.4149
1.62416
0.322918
2.47723
1.89439
2.05727
2.49323
0.578501
1.81089
-1.1993
0.197049
-2.36333
-1.51837
-2.3149
-2.4544
-1.0769
-2.12967
0.714569
-0.708759
2.13873
1.07813
2.46432
2.31215
1.52268
2.35918
-0.202583
1.19229
-1.82291
-0.590868
-2.50505
-2.0733
-1.89713
-2.49347
-0.309297
-1.63399
1.44156
0.066962
2.45467
1.73579
2.20918
2.51522
0.828464
2.00538
-0.979575
0.46564
-2.28565
-1.31454
-2.4204
2.39068
2.26006
1.2937
0.969944
-0.467818
-0.818461
-1.98769
-2.18696
-2.48561
-2.43257
-1.70515
-1.43054
-0.0454416
0.304892
1.63954
1.88369
2.483
2.4946
2.05132
1.82433
0.56371
0.217678
-1.21605
-1.50125
-2.37188
-2.44946
-2.31016
-2.13889
-1.06159
-0.729188
0.733654
1.05602
2.15113
2.3001
2.46163
2.36223
1.50593
1.20892
-0.226066
-0.567926
-1.84286
-2.05634
-2.51082
-2.49074
-1.88626
-1.64517
-0.28861
0.0475585
1.46228
1.7189
2.46495
2.51099
2.20364
2.01501
0.81226
0.48346
-0.996653
-1.29764
-2.29446
-2.41479
2.26985
2.38754
0.986319
1.27936
-0.803971
-0.487196
-2.18068
-2.00408
-2.43875
-2.49029
-1.44665
-1.69611
0.287288
-0.0283651
1.87199
1.65672
2.49452
2.49117
1.83737
2.04523
0.237173
0.547681
-1.48445
-1.23315
-2.44251
-2.38105
-2.14648
-2.30453
-0.74824
-1.04332
1.03541
0.754355
2.28702
2.16399
2.36326
2.45886
1.22494
1.48681
-0.545415
-0.251861
-2.0383
-1.8632
-2.48486
-2.51733
-1.65482
-1.87598
0.0278457
-0.268363
1.70083
1.47992
2.50334
2.47132
2.02164
2.19574
0.501464
0.794364
-1.27925
-1.01284
-2.40628
-2.2994
2.27981
1.00389
2.38403
-0.78672
1.26199
-2.17292
-0.510006
-2.44388
-2.02195
-1.46083
-2.49578
0.270107
-1.68587
1.85993
-0.00804101
2.49428
1.67543
1.8482
2.49931
0.254047
2.03848
-1.46836
0.529035
-2.43577
-1.25211
-2.15259
-2.38929
-0.763609
-2.29748
1.01699
-1.02287
2.27443
0.77771
2.36402
2.17686
1.23837
2.45497
-0.525336
1.46744
-2.02006
-0.278297
-2.4782
-1.883
-1.66302
-2.52181
0.0100749
-1.86578
1.6818
-0.250053
2.49289
1.49485
2.02611
2.47316
0.517353
2.18455
-1.26078
0.776766
-2.39438
-1.02739
-2.3014
1.02298
2.28919
-0.768634
2.37901
-2.16433
1.24369
-2.44695
-0.534437
-1.47383
-2.03989
0.25418
-2.49853
1.85
-1.67313
2.494
0.0143983
1.85729
1.69555
0.268999
2.50545
-1.45558
2.02838
-2.43121
0.508267
-2.15741
-1.27279
-0.776598
-2.39707
1.00179
-2.28744
2.26533
-1.00055
2.36485
0.801931
1.24939
2.19046
-0.507702
2.45022
-2.0048
1.44816
-2.47277
-0.301997
-1.66935
-1.90016
-0.00622507
-2.52394
1.66329
-1.85403
2.48233
-0.23396
2.0279
1.5058
0.53039
2.47205
-1.24248
2.17097
-2.38159
0.759436
-2.30108
-1.03866
1.04202
-0.750779
2.29938
-2.15508
2.37334
-2.45047
1.22504
-1.48681
-0.557189
0.240468
-2.05602
1.84193
-2.49847
2.49523
-1.65675
1.86761
0.03761
0.281929
1.71412
-1.44654
2.50915
-2.42927
2.01412
-2.1642
0.484593
-0.788887
-1.29313
0.990738
-2.40382
2.25974
-2.27566
2.36747
-0.976142
1.2605
0.825731
-0.493593
2.20304
-1.99395
2.44627
-2.4693
1.43038
-1.67636
-0.322149
-0.0212229
-1.91196
1.6478
-2.52305
2.47252
-1.84179
2.0284
-0.21895
0.542023
1.51312
-1.22648
2.468
-2.36957
2.15758
-2.29848
0.743198
-1.0479
-0.7322
1.06131
-2.14728
2.31011
-2.45632
2.36933
-1.50068
1.2072
0.226163
-0.578258
1.83509
-2.0686
2.50013
-2.49604
1.88015
-1.6391
0.295015
0.0610681
-1.43878
1.7296
-2.43144
2.5088
-2.17492
1.99748
-0.801661
0.459209
0.981103
-1.31308
2.25749
-2.40809
2.37441
-2.26312
1.2725
-0.95239
-0.481828
0.848751
-1.98642
2.2138
-2.47023
2.44237
-1.68575
1.41631
-0.0345575
-0.337863
1.63481
-1.91914
2.46514
-2.51826
2.03084
-1.82957
0.552331
-0.206035
-1.21308
1.51896
-2.35851
2.46246
-2.29628
2.14461
-1.05603
0.729623
-0.713192
-2.14084
1.08294
-2.46419
2.32192
-1.51857
2.36617
0.208612
1.19132
1.8286
-0.598157
2.50702
-2.07962
1.8961
-2.49138
0.311996
-1.62177
-1.43082
0.0825169
-2.43651
1.74293
-2.18898
2.50518
-0.818161
1.97909
0.970341
0.435057
2.25832
-1.33182
2.38487
-2.41139
1.28702
-2.25018
-0.469162
-0.931331
-1.98208
0.868355
-2.47584
2.22328
-1.69761
2.43851
-0.0486492
1.40505
1.6239
-0.34826
2.4624
-1.92273
2.03601
-2.51185
0.562972
-1.81687
-1.20045
-0.194974
-2.35022
1.52348
-2.29611
2.45815
-1.06321
2.13289
0.717302
-2.13303
-0.692549
-2.47434
1.10623
-1.54114
2.33549
0.186939
2.36263
1.8186
1.1749
2.51366
-0.617132
1.91621
-2.09055
0.333364
-2.48679
-1.4199
-1.60433
-2.44065
0.101899
-2.20643
1.75407
-0.839438
2.5014
0.957293
1.96095
2.2588
0.412534
2.39774
-1.34787
1.30606
-2.41481
-0.454616
-2.23966
-1.97892
-0.913438
-2.48393
0.883419
-1.71349
2.22999
-0.0649419
2.43561
1.61509
1.39576
2.46313
-0.355941
2.04497
-1.92349
0.576835
-2.50553
-1.18845
-1.8054
-2.34475
-0.183936
-2.29789
1.528
-1.07206
2.4552
0.705227
2.12383
-2.1229
-2.48438
-0.668392
-1.56561
1.13024
0.1598
2.34784
1.8029
2.35774
2.51833
1.15603
1.93722
-0.637513
0.358798
-2.10089
-1.40299
-2.48259
-2.44205
-1.58757
-2.22493
0.121434
-0.863645
1.76463
0.939525
2.49834
2.25643
1.94593
2.4122
0.392294
1.32808
-1.3627
-0.436929
-2.41826
-1.97346
-2.23286
-2.4937
-0.900555
-1.73294
0.89499
-0.0831559
2.23385
1.60569
2.43213
2.46607
1.38827
2.05891
-0.363127
0.593881
-1.92474
-1.17584
-2.49955
-2.34023
-1.79538
-2.30315
-0.173082
-1.08391
1.53493
0.693312
2.45413
2.11588
-2.49018
-2.10929
-1.58976
-0.642648
0.129221
1.15389
1.7826
2.35627
2.51775
2.34849
1.95607
1.13508
0.38741
-0.659301
-1.38122
-2.11117
-2.4388
-2.47685
-2.24046
-1.57067
-0.889847
0.141146
0.917113
1.77711
2.25075
2.49712
2.42482
1.93359
1.35143
0.375467
-0.414782
-1.377
-1.9651
-2.42348
-2.50302
-2.22869
-1.75333
-0.892194
-0.104505
0.902844
1.59416
2.23658
2.47059
2.4275
2.07556
1.37994
0.614075
-0.370697
-1.16046
-1.92829
-2.33673
-2.49571
-2.3117
-1.78518
-1.09829
-0.161429
0.679226
1.54401
2.108
2.45608
-2.49104
-1.61005
-2.09164
0.100211
-0.617822
1.75881
1.17328
2.5115
2.36018
1.97146
2.33458
0.415011
1.11206
-1.35659
-0.679703
-2.42948
-2.12014
-2.25204
-2.46987
-0.915523
-1.55208
0.892808
0.161192
2.24034
1.79063
2.43364
2.49899
1.37516
1.92358
-0.390371
0.360449
-1.95336
-1.38991
-2.5089
-2.43019
-1.77393
-2.22705
-0.128337
-0.885373
1.5809
0.908566
2.47371
2.23788
2.09296
2.42259
0.63765
1.36947
-1.14317
-0.381124
-2.33338
-1.93372
-2.32153
-2.4939
-1.11626
-1.77502
0.662107
-0.146914
2.10033
1.55537
2.45934
-1.62315
-2.48753
0.0755687
-2.07359
1.73524
-0.595726
2.50266
1.18655
1.98151
2.35878
0.438713
2.31932
-1.33102
1.08962
-2.41684
-0.697689
-2.2592
-2.12576
-0.93732
-2.46208
0.867839
-1.5338
2.22618
0.181814
2.43912
1.80428
1.3962
2.50204
-0.365672
1.91632
-1.93773
0.34668
-2.51163
-1.40221
-1.79316
-2.43588
-0.152133
-2.22584
1.56486
-0.878795
2.47404
0.915241
2.11034
2.23858
0.661903
2.41621
-1.12455
1.35752
-2.32835
-0.394852
-2.33262
-1.94189
-1.13713
-2.49213
0.643074
-1.76412
2.09099
-0.130265
2.46293
1.56981
-1.63068
0.0573799
-2.48125
1.71685
-2.0586
2.4935
-0.579455
1.98736
1.19544
0.458338
2.35486
-1.30862
2.30538
-2.40386
1.07191
-2.26197
-0.712328
-0.955413
-2.13004
0.84434
-2.45425
2.21147
-1.51794
2.44075
0.200375
1.41339
1.81811
-0.341462
2.50516
-1.92091
1.90985
-2.51162
0.335137
-1.80888
-1.41322
-0.175553
-2.43988
1.54684
-2.22157
2.47244
-0.870407
2.12517
0.923225
0.685077
2.24054
-1.10442
2.40847
-2.32263
1.34313
-2.34401
-0.410155
-1.15847
-1.95196
0.621724
-2.49058
2.07973
-1.7508
2.46724
-0.111814
1.58544
0.0461959
-1.63583
1.70457
-2.47722
2.48731
-2.04802
1.99294
-0.568757
0.473339
1.20203
-1.29129
2.35406
-2.39235
2.2963
-2.26388
1.05907
-0.970496
-0.723741
0.824829
-2.13589
2.19734
-2.45029
2.44011
-1.50512
1.42807
0.21589
-0.320165
1.83033
-1.90486
2.50866
-2.50896
1.90329
-1.82221
0.32461
-0.197638
-1.42091
1.52929
-2.44084
2.46839
-2.21391
2.13691
-0.857959
0.707175
0.933013
-1.08501
2.24298
-2.31662
2.40097
-2.35383
1.32699
-1.18006
-0.427116
0.599208
-1.96178
2.06826
-2.48883
2.47085
-1.7364
1.60133
-0.0911447
0.0376299
1.69768
-1.64184
2.48723
-2.47877
2.00017
-2.04321
0.485759
-0.559486
-1.27785
1.2109
-2.38544
2.35934
-2.26778
2.2947
-0.983217
1.04938
0.808229
-0.736606
2.18537
-2.14562
2.44054
-2.45213
1.44044
-1.49642
-0.302089
0.230243
-1.88985
1.84083
-2.50644
2.51049
-1.83415
1.8969
-0.216909
0.314801
1.51226
-1.42605
2.46301
-2.43726
2.14729
-2.203
0.726758
-0.842944
-1.0672
0.945434
-2.30971
2.24584
-2.36299
2.39319
-1.201
1.31126
0.578037
-0.444832
2.05651
-1.97193
2.47395
-2.48589
1.61813
-1.72176
-0.0703071
1.6943
0.0270041
2.49184
-1.65362
2.01102
-2.4857
0.499577
-2.04186
-1.26773
-0.548224
-2.38362
1.22743
-2.2745
2.37213
-0.997004
2.2976
0.793257
1.03977
2.1773
-0.755291
2.44275
-2.16238
1.45233
-2.45757
-0.285151
-1.48918
-1.8775
0.244301
-2.50561
1.85062
-1.84492
2.50922
-0.234999
1.88864
1.49626
0.3066
2.45878
-1.4292
2.15641
-2.43141
0.744292
-2.18932
-1.04999
-0.826997
-2.30354
0.958523
-2.37188
2.25039
-1.2198
2.38581
0.558009
1.29574
2.04546
-0.461633
2.47841
-1.98271
1.63472
-2.48368
-0.0500866
-1.70674
1.68909
2.49868
0.0115221
2.02703
-1.67283
0.516046
-2.49737
-1.25837
-2.03867
-2.38436
-0.530923
-2.28579
1.2522
-1.01389
2.3917
0.77921
2.3002
2.17138
1.02413
2.44759
-0.781237
1.46677
-2.1849
-0.268831
-2.46316
-1.86738
-1.47768
-2.50602
0.259399
-1.85703
1.85731
-0.253103
2.50481
1.48231
1.87828
2.45543
0.298687
2.16554
-1.43059
0.762128
-2.42591
-1.03401
-2.17668
-2.29843
-0.810831
-2.37988
0.971563
-1.23794
2.25591
0.539154
2.38079
2.03691
1.28082
2.48389
-0.478859
1.65149
-1.9938
-0.0294617
-2.48336
-1.69323
2.50552
1.67827
2.04571
-0.0117427
0.536208
-1.69707
-1.24593
-2.51015
-2.38632
-2.03062
-2.30081
-0.504471
-1.03357
1.28339
0.763128
2.41215
2.166
2.29815
2.45597
0.998954
1.48373
-0.814692
-0.251531
-2.20699
-1.85704
-2.46278
-2.50858
-1.45997
-1.8714
0.275294
-0.271293
1.85882
1.46847
2.49679
2.45297
1.86847
2.17681
0.290769
0.780461
-1.43368
-1.01836
-2.42282
-2.29295
-2.16778
-2.38861
-0.796726
-1.2564
0.98596
0.521908
2.26319
2.02951
2.37765
2.49064
1.26751
1.67022
-0.497471
-0.0091135
-2.00743
-1.68145
-2.48456
2.50819
2.06462
1.66125
0.560944
-0.0419891
-1.22972
-1.72403
-2.38684
-2.51875
-2.31626
-2.01552
-1.05669
-0.471153
0.743764
1.31771
2.16051
2.42774
2.46552
2.28648
1.50311
0.965556
-0.230947
-0.851257
-1.84609
-2.22325
-2.51243
-2.45142
-1.88693
-1.43804
-0.291597
0.2862
1.45351
1.85639
2.4519
2.48881
2.18934
1.86054
0.800136
0.283121
-1.00073
-1.44153
-2.28751
-2.4261
-2.39828
-2.16277
-1.27494
-0.784368
0.503853
1.00188
2.02209
2.27446
2.49944
2.37638
1.69017
1.25386
0.0116627
-0.517492
-1.66961
-2.0245
-2.4884
2.08253
2.50498
0.587709
1.63756
-1.20935
-0.0749818
-2.38263
-1.74976
-2.33074
-2.52152
-1.0818
-1.9926
0.722201
-0.434844
2.15238
1.34876
2.47438
2.43566
1.52503
2.26476
-0.208028
0.926847
-1.83352
-0.883569
-2.51509
-2.23035
-1.90401
-2.43258
-0.314367
-1.41751
1.4376
0.289516
2.45002
1.85412
2.2024
2.48727
0.822536
1.85565
-0.981391
0.272427
-2.28127
-1.45575
-2.40733
-2.43704
-1.29516
-2.16191
0.483582
-0.770518
2.01422
1.02112
2.50798
2.28926
1.711
2.37746
0.0347928
1.23841
-1.65756
-0.541053
-2.49407
-2.04387
2.09675
0.61447
2.4973
-1.18445
1.60962
-2.37391
-0.107985
-2.3423
-1.76996
-1.1057
-2.51817
0.698222
-1.9658
2.1409
-0.399083
2.4821
1.3725
1.54674
2.43424
-0.183666
2.2379
-1.81779
0.889226
-2.51654
-0.908348
-1.9216
-2.22988
-0.337929
-2.41479
1.41922
-1.40525
2.44613
0.293457
2.21605
1.86082
0.845937
2.49424
-0.960233
1.85338
-2.27226
0.255541
-2.41601
-1.47883
-1.31692
-2.45322
0.461547
-2.16229
2.00328
-0.753317
2.51453
1.04633
1.73296
2.30705
0.0594521
2.37816
-1.64401
1.22086
-2.49865
-0.568545
-2.06559
0.64067
2.10682
-1.15786
2.48579
-2.36135
1.58192
-2.34884
-0.137946
-1.12777
-1.78465
0.673164
-2.50935
2.12757
-1.9392
2.48663
-0.368752
1.56652
1.38911
-0.158078
2.42648
-1.8005
2.21128
-2.51631
0.860209
-1.93732
-0.924909
-0.362335
-2.22867
1.39858
-2.40566
2.4408
-1.3998
2.22793
0.307548
0.869044
1.88226
-0.936647
2.50811
-2.26126
1.84826
-2.42347
0.231152
-1.33811
-1.50975
0.436879
-2.47209
1.98839
-2.15865
2.51876
-0.730362
1.75349
1.07638
0.0851267
2.32712
-1.62676
2.37621
-2.50117
1.19914
-2.08772
-0.597987
0.664136
-1.13168
2.11468
-2.34539
2.47278
-2.35192
1.55619
-1.1473
-0.162173
0.649581
-1.79489
2.11226
-2.49931
2.48784
-1.91516
1.58451
-0.345531
-0.133812
1.39949
-1.7828
2.41895
-2.51335
2.19128
-1.95149
0.842198
-0.386434
-0.933125
1.37783
-2.23046
2.43307
-2.40828
2.23716
-1.39352
0.891697
0.333417
-0.912923
1.91322
-2.24873
2.52334
-2.42788
1.83529
-1.3585
0.198035
0.410691
-1.54367
1.97105
-2.48883
2.51875
-2.14863
1.77107
-0.699932
0.111871
1.10911
-1.60676
2.34537
-2.50003
2.37082
-2.10655
1.17327
-0.628536
-1.10637
0.684563
-2.3293
2.12066
-2.35315
2.46167
-1.16342
1.53389
0.627142
-0.182093
2.09601
-1.80185
2.48764
-2.49133
1.59946
-1.8968
-0.111915
-0.327487
-1.76468
1.40721
-2.50949
2.41564
-1.96405
2.18254
-0.408069
0.834289
1.35716
-0.937398
2.42374
-2.23639
2.24492
-2.41665
0.911832
-1.38218
-0.890547
0.366949
-2.23453
1.94457
-2.43034
2.53101
-1.37706
1.81352
0.385914
0.15919
1.95159
-1.5764
2.51471
-2.49796
1.78589
-2.13111
0.137053
-0.665248
-1.58498
1.14193
-2.49337
2.35858
-2.12096
2.35999
-0.657584
1.14594
-1.0839
-2.31504
0.703678
-2.35335
2.12614
-1.17843
2.45272
0.605712
1.51629
2.0809
-0.199408
2.48603
-1.80923
1.61191
-2.48634
-0.0913569
-1.88443
-1.74806
-0.313616
-2.50578