# vtk DataFile Version 3.1
vtk output
ASCII
DATASET POLYDATA
POINTS 4260 FLOAT
2.83277e-16          -1    -3.14159
-0.104528 -0.994522  -3.14159
 0.104528 -0.994522  -3.14159
-0.207912 -0.978148  -3.14159
 0.207912 -0.978148  -3.14159
-0.309017 -0.951057  -3.14159
 0.309017 -0.951057  -3.14159
-0.406737 -0.913545  -3.14159
 0.406737 -0.913545  -3.14159
     -0.5 -0.866025  -3.14159
      0.5 -0.866025  -3.14159
-0.587785 -0.809017  -3.14159
 0.587785 -0.809017  -3.14159
-0.669131 -0.743145  -3.14159
 0.669131 -0.743145  -3.14159
-0.743145 -0.669131  -3.14159
 0.743145 -0.669131  -3.14159
-0.809017 -0.587785  -3.14159
 0.809017 -0.587785  -3.14159
-0.866025      -0.5  -3.14159
0.866025     -0.5 -3.14159
-0.913545 -0.406737  -3.14159
 0.913545 -0.406737  -3.14159
-0.951057 -0.309017  -3.14159
 0.951057 -0.309017  -3.14159
-0.978148 -0.207912  -3.14159
 0.978148 -0.207912  -3.14159
-0.994522 -0.104528  -3.14159
 0.994522 -0.104528  -3.14159
          -1 -5.66554e-16     -3.14159
       1        0 -3.14159
-0.994522  0.104528  -3.14159
0.994522 0.104528 -3.14159
-0.978148  0.207912  -3.14159
0.978148 0.207912 -3.14159
-0.951057  0.309017  -3.14159
0.951057 0.309017 -3.14159
-0.913545  0.406737  -3.14159
0.913545 0.406737 -3.14159
-0.866025       0.5  -3.14159
0.866025      0.5 -3.14159
-0.809017  0.587785  -3.14159
0.809017 0.587785 -3.14159
-0.743145  0.669131  -3.14159
0.743145 0.669131 -3.14159
-0.669131  0.743145  -3.14159
0.669131 0.743145 -3.14159
-0.587785  0.809017  -3.14159
0.587785 0.809017 -3.14159
    -0.5 0.866025 -3.14159
     0.5 0.866025 -3.14159
-0.406737  0.913545  -3.14159
0.406737 0.913545 -3.14159
-0.309017  0.951057  -3.14159
0.309017 0.951057 -3.14159
-0.207912  0.978148  -3.14159
0.207912 0.978148 -3.14159
-0.104528  0.994522  -3.14159
0.104528 0.994522 -3.14159
-1.83697e-16            1     -3.14159
-0.052336  -0.99863   -3.0509
0.052336 -0.99863  -3.0509
-0.156434 -0.987688   -3.0509
 0.156434 -0.987688   -3.0509
-0.258819 -0.965926   -3.0509
 0.258819 -0.965926   -3.0509
-0.358368  -0.93358   -3.0509
0.358368 -0.93358  -3.0509
 -0.45399 -0.891007   -3.0509
  0.45399 -0.891007   -3.0509
-0.544639 -0.838671   -3.0509
 0.544639 -0.838671   -3.0509
 -0.62932 -0.777146   -3.0509
  0.62932 -0.777146   -3.0509
-0.707107 -0.707107   -3.0509
 0.707107 -0.707107   -3.0509
-0.777146  -0.62932   -3.0509
0.777146 -0.62932  -3.0509
-0.838671 -0.544639   -3.0509
 0.838671 -0.544639   -3.0509
-0.891007  -0.45399   -3.0509
0.891007 -0.45399  -3.0509
 -0.93358 -0.358368   -3.0509
  0.93358 -0.358368   -3.0509
-0.965926 -0.258819   -3.0509
 0.965926 -0.258819   -3.0509
-0.987688 -0.156434   -3.0509
 0.987688 -0.156434   -3.0509
 -0.99863 -0.052336   -3.0509
  0.99863 -0.052336   -3.0509
-0.99863 0.052336  -3.0509
 0.99863 0.052336  -3.0509
-0.987688  0.156434   -3.0509
0.987688 0.156434  -3.0509
-0.965926  0.258819   -3.0509
0.965926 0.258819  -3.0509
-0.93358 0.358368  -3.0509
 0.93358 0.358368  -3.0509
-0.891007   0.45399   -3.0509
0.891007  0.45399  -3.0509
-0.838671  0.544639   -3.0509
0.838671 0.544639  -3.0509
-0.777146   0.62932   -3.0509
0.777146  0.62932  -3.0509
-0.707107  0.707107   -3.0509
0.707107 0.707107  -3.0509
-0.62932 0.777146  -3.0509
 0.62932 0.777146  -3.0509
-0.544639  0.838671   -3.0509
0.544639 0.838671  -3.0509
-0.45399 0.891007  -3.0509
 0.45399 0.891007  -3.0509
-0.358368   0.93358   -3.0509
0.358368  0.93358  -3.0509
-0.258819  0.965926   -3.0509
0.258819 0.965926  -3.0509
-0.156434  0.987688   -3.0509
0.156434 0.987688  -3.0509
-0.052336   0.99863   -3.0509
0.052336  0.99863  -3.0509
6.12323e-17          -1    -2.96021
-0.104528 -0.994522  -2.96021
 0.104528 -0.994522  -2.96021
-0.207912 -0.978148  -2.96021
 0.207912 -0.978148  -2.96021
-0.309017 -0.951057  -2.96021
 0.309017 -0.951057  -2.96021
-0.406737 -0.913545  -2.96021
 0.406737 -0.913545  -2.96021
     -0.5 -0.866025  -2.96021
      0.5 -0.866025  -2.96021
-0.587785 -0.809017  -2.96021
 0.587785 -0.809017  -2.96021
-0.669131 -0.743145  -2.96021
 0.669131 -0.743145  -2.96021
-0.743145 -0.669131  -2.96021
 0.743145 -0.669131  -2.96021
-0.809017 -0.587785  -2.96021
 0.809017 -0.587785  -2.96021
-0.866025      -0.5  -2.96021
0.866025     -0.5 -2.96021
-0.913545 -0.406737  -2.96021
 0.913545 -0.406737  -2.96021
-0.951057 -0.309017  -2.96021
 0.951057 -0.309017  -2.96021
-0.978148 -0.207912  -2.96021
 0.978148 -0.207912  -2.96021
-0.994522 -0.104528  -2.96021
 0.994522 -0.104528  -2.96021
          -1 -5.66554e-16     -2.96021
          1 2.77556e-17    -2.96021
-0.994522  0.104528  -2.96021
0.994522 0.104528 -2.96021
-0.978148  0.207912  -2.96021
0.978148 0.207912 -2.96021
-0.951057  0.309017  -2.96021
0.951057 0.309017 -2.96021
-0.913545  0.406737  -2.96021
0.913545 0.406737 -2.96021
-0.866025       0.5  -2.96021
0.866025      0.5 -2.96021
-0.809017  0.587785  -2.96021
0.809017 0.587785 -2.96021
-0.743145  0.669131  -2.96021
0.743145 0.669131 -2.96021
-0.669131  0.743145  -2.96021
0.669131 0.743145 -2.96021
-0.587785  0.809017  -2.96021
0.587785 0.809017 -2.96021
    -0.5 0.866025 -2.96021
     0.5 0.866025 -2.96021
-0.406737  0.913545  -2.96021
0.406737 0.913545 -2.96021
-0.309017  0.951057  -2.96021
0.309017 0.951057 -2.96021
-0.207912  0.978148  -2.96021
0.207912 0.978148 -2.96021
-0.104528  0.994522  -2.96021
0.104528 0.994522 -2.96021
-1.83697e-16            1     -2.96021
-0.052336  -0.99863  -2.86952
0.052336 -0.99863 -2.86952
-0.156434 -0.987688  -2.86952
 0.156434 -0.987688  -2.86952
-0.258819 -0.965926  -2.86952
 0.258819 -0.965926  -2.86952
-0.358368  -0.93358  -2.86952
0.358368 -0.93358 -2.86952
 -0.45399 -0.891007  -2.86952
  0.45399 -0.891007  -2.86952
-0.544639 -0.838671  -2.86952
 0.544639 -0.838671  -2.86952
 -0.62932 -0.777146  -2.86952
  0.62932 -0.777146  -2.86952
-0.707107 -0.707107  -2.86952
 0.707107 -0.707107  -2.86952
-0.777146  -0.62932  -2.86952
0.777146 -0.62932 -2.86952
-0.838671 -0.544639  -2.86952
 0.838671 -0.544639  -2.86952
-0.891007  -0.45399  -2.86952
0.891007 -0.45399 -2.86952
 -0.93358 -0.358368  -2.86952
  0.93358 -0.358368  -2.86952
-0.965926 -0.258819  -2.86952
 0.965926 -0.258819  -2.86952
-0.987688 -0.156434  -2.86952
 0.987688 -0.156434  -2.86952
 -0.99863 -0.052336  -2.86952
  0.99863 -0.052336  -2.86952
-0.99863 0.052336 -2.86952
 0.99863 0.052336 -2.86952
-0.987688  0.156434  -2.86952
0.987688 0.156434 -2.86952
-0.965926  0.258819  -2.86952
0.965926 0.258819 -2.86952
-0.93358 0.358368 -2.86952
 0.93358 0.358368 -2.86952
-0.891007   0.45399  -2.86952
0.891007  0.45399 -2.86952
-0.838671  0.544639  -2.86952
0.838671 0.544639 -2.86952
-0.777146   0.62932  -2.86952
0.777146  0.62932 -2.86952
-0.707107  0.707107  -2.86952
0.707107 0.707107 -2.86952
-0.62932 0.777146 -2.86952
 0.62932 0.777146 -2.86952
-0.544639  0.838671  -2.86952
0.544639 0.838671 -2.86952
-0.45399 0.891007 -2.86952
 0.45399 0.891007 -2.86952
-0.358368   0.93358  -2.86952
0.358368  0.93358 -2.86952
-0.258819  0.965926  -2.86952
0.258819 0.965926 -2.86952
-0.156434  0.987688  -2.86952
0.156434 0.987688 -2.86952
-0.052336   0.99863  -2.86952
0.052336  0.99863 -2.86952
6.12323e-17          -1    -2.77883
-0.104528 -0.994522  -2.77883
 0.104528 -0.994522  -2.77883
-0.207912 -0.978148  -2.77883
 0.207912 -0.978148  -2.77883
-0.309017 -0.951057  -2.77883
 0.309017 -0.951057  -2.77883
-0.406737 -0.913545  -2.77883
 0.406737 -0.913545  -2.77883
     -0.5 -0.866025  -2.77883
      0.5 -0.866025  -2.77883
-0.587785 -0.809017  -2.77883
 0.587785 -0.809017  -2.77883
-0.669131 -0.743145  -2.77883
 0.669131 -0.743145  -2.77883
-0.743145 -0.669131  -2.77883
 0.743145 -0.669131  -2.77883
-0.809017 -0.587785  -2.77883
 0.809017 -0.587785  -2.77883
-0.866025      -0.5  -2.77883
0.866025     -0.5 -2.77883
-0.913545 -0.406737  -2.77883
 0.913545 -0.406737  -2.77883
-0.951057 -0.309017  -2.77883
 0.951057 -0.309017  -2.77883
-0.978148 -0.207912  -2.77883
 0.978148 -0.207912  -2.77883
-0.994522 -0.104528  -2.77883
 0.994522 -0.104528  -2.77883
          -1 -1.22465e-16     -2.77883
          1 5.55112e-17    -2.77883
-0.994522  0.104528  -2.77883
0.994522 0.104528 -2.77883
-0.978148  0.207912  -2.77883
0.978148 0.207912 -2.77883
-0.951057  0.309017  -2.77883
0.951057 0.309017 -2.77883
-0.913545  0.406737  -2.77883
0.913545 0.406737 -2.77883
-0.866025       0.5  -2.77883
0.866025      0.5 -2.77883
-0.809017  0.587785  -2.77883
0.809017 0.587785 -2.77883
-0.743145  0.669131  -2.77883
0.743145 0.669131 -2.77883
-0.669131  0.743145  -2.77883
0.669131 0.743145 -2.77883
-0.587785  0.809017  -2.77883
0.587785 0.809017 -2.77883
    -0.5 0.866025 -2.77883
     0.5 0.866025 -2.77883
-0.406737  0.913545  -2.77883
0.406737 0.913545 -2.77883
-0.309017  0.951057  -2.77883
0.309017 0.951057 -2.77883
-0.207912  0.978148  -2.77883
0.207912 0.978148 -2.77883
-0.104528  0.994522  -2.77883
0.104528 0.994522 -2.77883
-1.83697e-16            1     -2.77883
-0.052336  -0.99863  -2.68814
0.052336 -0.99863 -2.68814
-0.156434 -0.987688  -2.68814
 0.156434 -0.987688  -2.68814
-0.258819 -0.965926  -2.68814
 0.258819 -0.965926  -2.68814
-0.358368  -0.93358  -2.68814
0.358368 -0.93358 -2.68814
 -0.45399 -0.891007  -2.68814
  0.45399 -0.891007  -2.68814
-0.544639 -0.838671  -2.68814
 0.544639 -0.838671  -2.68814
 -0.62932 -0.777146  -2.68814
  0.62932 -0.777146  -2.68814
-0.707107 -0.707107  -2.68814
 0.707107 -0.707107  -2.68814
-0.777146  -0.62932  -2.68814
0.777146 -0.62932 -2.68814
-0.838671 -0.544639  -2.68814
 0.838671 -0.544639  -2.68814
-0.891007  -0.45399  -2.68814
0.891007 -0.45399 -2.68814
 -0.93358 -0.358368  -2.68814
  0.93358 -0.358368  -2.68814
-0.965926 -0.258819  -2.68814
 0.965926 -0.258819  -2.68814
-0.987688 -0.156434  -2.68814
 0.987688 -0.156434  -2.68814
 -0.99863 -0.052336  -2.68814
  0.99863 -0.052336  -2.68814
-0.99863 0.052336 -2.68814
 0.99863 0.052336 -2.68814
-0.987688  0.156434  -2.68814
0.987688 0.156434 -2.68814
-0.965926  0.258819  -2.68814
0.965926 0.258819 -2.68814
-0.93358 0.358368 -2.68814
 0.93358 0.358368 -2.68814
[...]
POINT_DATA 4260
SCALARS Field double
LOOKUP_TABLE default
1.56743
-0.139581
2.46678
-1.77562
2.09701
-2.4998
0.648757
-1.93968
-1.13466
-0.380928
-2.33612
1.3754
-2.33787
2.42615
-1.13986
2.23196
0.643158
0.890723
2.09573
-0.910061
2.47114
-2.24459
1.57741
-2.42811
-0.125717
-1.36609
-1.7638
0.39822
-2.49483
1.95874
-1.94298
2.51444
-0.392575
1.78153
1.35994
0.135368
2.41423
-1.57932
2.22764
-2.48163
0.8958
-2.11013
-0.896996
-0.656604
-2.2305
1.13301
-2.41958
2.33872
-1.36651
2.34199
0.387161
1.14322
1.9405
-0.641672
2.49606
-2.09513
1.76779
-2.46967
0.130089
-1.57432
-0.118689
1.58335
-1.76043
2.47134
-2.49799
2.08839
-1.9511
0.631359
-0.400469
-1.15062
1.3572
-2.3427
2.41927
-2.33252
2.23903
-1.12471
0.907715
0.659651
-0.890878
2.10404
-2.23345
2.46748
-2.4306
1.56285
-1.37952
-0.14485
0.380582
-1.7772
1.94595
-2.49624
2.51405
-1.93244
1.79287
-0.374489
0.151863
1.3762
-1.56575
2.42
-2.47904
2.22128
-2.12042
0.880671
-0.673561
-0.913324
1.11765
-2.23826
2.33283
-2.41467
2.34977
-1.35178
1.16013
0.405202
-0.624696
1.95217
-2.08611
2.49439
-2.47422
1.75409
-1.59084
0.110546
-0.0974801
-1.74529
1.60037
-2.49515
2.4759
-1.96246
2.08016
-0.420697
0.615151
1.33898
-1.16649
2.41123
-2.34877
2.24456
-2.32577
0.924695
-1.10916
-0.871719
0.676929
-2.22189
2.11372
-2.43108
2.46365
-1.39182
1.54797
0.362977
-0.163961
1.93324
-1.79187
2.51199
-2.49837
1.8017
-1.92144
0.167213
-0.356632
-1.55326
1.39287
-2.47683
2.42696
-2.12907
2.2148
-0.689248
0.865625
1.10306
-0.928773
2.32831
-2.24598
2.35747
-2.40891
1.17602
-1.335
-0.607962
0.424355
-2.07819
1.96517
-2.48012
2.49439
-1.60726
1.74037
0.0907835
-1.72976
-0.0772506
-2.49235
1.6167
-1.97391
2.48062
-0.439785
2.07113
1.32093
0.598736
2.40257
-1.18152
2.25011
-2.35479
0.940632
-2.31829
-0.853888
-1.09191
-2.21009
0.694751
-2.43148
2.12402
-1.40392
2.46075
0.346784
1.53243
1.92084
-0.183624
2.50926
-1.80626
1.81041
-2.50109
0.181403
-1.91036
-1.54214
-0.337797
-2.47437
1.40923
-2.13763
2.43361
-0.704746
2.20842
1.08994
0.849419
2.32433
-0.944782
2.36503
-2.25294
1.19258
-2.40288
-0.591563
-1.31714
-2.0711
0.445496
-2.48571
1.97882
-1.62406
2.49501
0.0704824
1.72759
-1.71546
-2.49062
-0.0577211
-1.98466
1.6312
-0.45831
2.48403
1.30343
2.06183
2.39547
0.581274
2.25592
-1.1968
0.955734
-2.35983
-0.836407
-2.31058
-2.19967
-1.07388
-2.43342
0.714036
-1.41588
2.13433
0.330649
2.45784
1.90864
1.51741
2.50802
-0.203895
1.81969
-1.82069
0.195447
-2.50282
-1.53036
-1.89937
-2.4722
-0.318974
-2.14687
1.42578
-0.71972
2.43871
1.07667
2.20045
2.31992
0.832414
2.37336
-0.962276
1.20922
-2.26037
-0.575324
-2.39593
-2.06295
-1.29912
-2.49103
0.46717
-1.64105
1.99358
0.0510034
2.49538
1.71481
-2.48946
-1.70317
-1.99609
-0.0399227
-0.477049
1.64482
1.28762
2.4856
2.38975
2.0513
2.26264
0.563683
0.972199
-1.21291
-0.819322
-2.36491
-2.19095
-2.3018
-2.43643
-1.0558
-1.42954
0.733587
0.313135
2.14542
1.89716
2.4544
2.50765
1.50224
1.83
-0.223299
0.211727
-1.83509
-1.51746
-2.50406
-2.46987
-1.88737
-2.15546
-0.300883
-0.735331
1.44118
1.06211
2.44278
2.31532
2.19007
2.38098
0.813568
1.22525
-0.980318
-0.55805
-2.26888
-2.05408
-2.38932
-2.49578
-1.28059
-1.65644
0.488134
0.0319875
2.00791
1.70168
2.49619
-2.4896
-2.00896
-1.69142
-0.495539
-0.0237046
1.27211
1.65728
2.38479
2.48681
2.27171
2.03935
0.990126
0.545241
-0.801893
-1.2288
-2.18189
-2.37057
-2.44093
-2.29306
-1.44562
-1.03703
0.294506
0.752546
1.88465
2.15615
2.50707
2.45143
1.84235
1.48672
0.229931
-0.242282
-1.50299
-1.84802
-2.4654
-2.50503
-2.16357
-1.87523
-0.751779
-0.282637
1.04709
1.45489
2.30916
2.44508
2.38679
2.17868
1.24111
0.792909
-0.540918
-0.999396
-2.04493
-2.27742
-2.49859
-2.38388
-1.67057
-1.26306
0.0134909
0.508718
1.68951
2.02086
2.49647
-2.02185
-2.4906
-0.514895
-1.67991
1.25571
-0.00689609
2.38075
1.66906
2.28175
2.48747
1.00919
2.02749
-0.782271
0.525794
-2.1721
-1.24516
-2.44616
-2.37581
-1.46234
-2.28505
0.273946
-1.01878
1.87007
0.771605
2.50645
2.16589
1.85507
2.44814
0.249163
1.47216
-1.48586
-0.260973
-2.45919
-1.86011
-2.17104
-2.50461
-0.767468
-1.86337
1.0311
-0.264921
2.301
1.46841
2.39156
2.446
1.25552
2.1665
-0.524871
0.7725
-2.03485
-1.01927
-2.50047
-2.28661
-1.68379
-2.37878
-0.00315063
-1.24741
1.67777
0.527682
2.49592
2.03334
-2.03454
-0.535126
-2.49002
1.2391
-1.66773
2.37581
0.0107274
2.29113
1.68195
1.02957
2.48768
-0.761425
2.0153
-2.16134
0.506754
-2.44984
-1.26221
-1.47922
-2.38144
0.251951
-2.27687
1.85471
-1.00173
2.50444
0.78973
1.86677
2.17568
0.269423
2.44425
-1.46774
1.45792
-2.45209
-0.278168
-2.17676
-1.87179
-0.782841
-2.50368
1.01425
-1.85061
2.29245
-0.247679
2.39481
1.48188
1.26809
2.44793
-0.509101
2.15448
-2.02512
0.752668
-2.50236
-1.03816
-1.69537
-2.29665
-0.0188537
-2.37492
1.66619
-1.23271
2.49588
0.544634
2.04472
-0.554121
-2.04614
1.22183
-2.48753
2.36907
-1.65303
2.29975
0.0291715
1.04904
1.69538
-0.740843
2.48875
-2.14885
2.00269
-2.45219
0.487666
-1.49545
-1.27861
0.23095
-2.38779
1.83875
-2.26942
2.50097
-0.984916
1.8781
0.806503
0.288939
2.18482
-1.45019
2.44102
-2.44406
1.44369
-2.18219
-0.294798
-0.798437
-1.88221
0.998001
-2.50284
2.28338
-1.83764
2.39694
-0.229211
1.28057
1.49594
-0.494119
2.45132
-2.0163
2.14491
-2.50365
0.73384
-1.70676
-1.05645
-0.0344893
-2.30629
1.65573
-2.37257
2.4958
-1.21946
2.05507
0.561103
-0.571598
1.20446
-2.05479
2.36199
-2.4833
2.30636
-1.63685
1.06607
0.0491076
-0.720855
1.70866
-2.13654
2.48991
-2.45403
1.99105
-1.50952
0.468485
0.211193
-1.29491
1.82303
-2.39368
2.49808
-2.26307
1.88866
-0.969059
0.307036
0.823225
-1.43294
2.19318
-2.43692
2.4378
-2.1887
1.43042
-0.813802
-0.311679
0.98141
-1.89273
2.27383
-2.50136
2.39989
-1.82482
1.29317
-0.20984
-0.479473
1.51245
-2.00689
2.45653
-2.5053
2.13747
-1.7189
0.717301
-0.0496392
-1.07452
1.64515
-2.31622
2.49528
-2.37024
2.06594
-1.20742
0.576999
1.18903
-0.587539
2.35477
-2.06162
2.31109
-2.4772
1.08149
-1.62075
-0.703193
0.0687951
-2.12606
1.72245
-2.45534
2.49081
-1.52272
1.97989
0.192501
0.450615
1.80942
-1.31134
2.496
-2.39985
1.89893
-2.25662
0.325311
-0.954287
-1.41676
0.83949
-2.4315
2.20219
-2.19589
2.43421
-0.830469
1.41694
0.963576
-0.328404
2.26481
-1.90447
2.4033
-2.50053
1.30637
-1.8112
-0.463014
-0.189849
-1.99681
1.53073
-2.50731
2.46456
-1.73091
2.1314
-0.0657176
0.701777
1.63342
-1.09154
2.49513
-2.32665
2.07681
-2.3681
0.592672
-1.19461
1.17502
2.348
-0.601516
2.3162
-2.06849
1.09532
-2.47174
-0.688157
-1.60512
-2.11695
0.087015
-2.45793
1.7358
-1.53645
2.49281
0.175354
1.96913
1.79705
0.433413
2.49475
-1.32682
1.91076
-2.40669
0.343803
-2.25067
-1.40133
-0.939045
-2.4263
0.855426
-2.20451
2.21134
-0.849134
2.43122
0.945085
1.40228
2.25506
-0.346559
2.40665
-1.91705
1.32161
-2.50124
-0.444767
-1.79785
-1.98552
-0.16845
-2.50786
1.54981
-1.74334
2.47369
-0.0834317
2.12671
1.62098
0.686008
2.49401
-1.10862
2.08719
-2.33613
0.609712
-2.3657
-1.18093
2.34312
1.16136
2.32203
-0.615872
1.10856
-2.07617
-0.673567
-2.46894
-2.10955
-1.59163
-2.46246
0.104744
-1.55037
1.74869
0.158036
2.49554
1.78478
1.96003
2.49505
0.416346
1.92342
-1.34237
0.362623
-2.41313
-1.38474
-2.24525
-2.42113
-0.923528
-2.21412
0.872696
-0.868229
2.22047
0.925116
2.42779
2.24373
1.38698
2.41041
-0.367139
1.33769
-1.93169
-0.42505
-2.50261
-1.97136
-1.78544
-2.50694
-0.147041
-1.75597
1.5697
-0.101568
2.48209
1.60662
2.12125
2.49085
0.670254
2.0977
-1.12621
0.627376
-2.34485
-1.16617
-2.36107
2.33882
2.32866
1.1478
1.12349
-0.632655
-0.658761
-2.08683
-2.10305
-2.46831
-2.4672
-1.58047
-1.56527
0.121926
0.139624
1.76295
1.77286
2.49893
2.49519
1.95161
1.93581
0.400015
0.382591
-1.35877
-1.36748
-2.41991
-2.41556
-2.23878
-2.22243
-0.907455
-0.887398
0.890995
0.903979
2.23078
2.23194
2.4233
2.41316
1.36994
1.3533
-0.389141
-0.403485
-1.9486
-1.95529
-2.5052
-2.50453
-1.77294
-1.76701
-0.12667
-0.120395
1.58838
1.58999
2.48946
2.48626
2.11352
2.10686
0.653301
0.644843
-1.1429
-1.14911
-2.35247
-2.3544
2.33686
2.33377
1.13979
1.13237
-0.643083
-0.65162
-2.09507
-2.10094
-2.47177
-2.46988
-1.58076
-1.56925
0.121473
0.139373
1.76021
1.7784
2.49406
2.50391
1.94804
1.94275
0.401952
0.382871
-1.35052
-1.37526
-2.40835
-2.4272
-2.22939
-2.23146
-0.90572
-0.88913
0.884036
0.910226
2.21955
2.24142
2.41431
2.41873
1.36858
1.35094
-0.382123
-0.41274
-1.93864
-1.96577
-2.49977
-2.50862
-1.7768
-1.76092
-0.13955
-0.106733
1.57269
1.60449
2.47939
2.49401
2.11367
2.10413
0.662451
0.63494
-1.13098
-1.15885
-2.34593
-2.35729
2.34514
1.15673
2.32829
-0.625256
1.11435
-2.08579
-0.673112
-2.47568
-2.11613
-1.59479
-2.47227
0.103646
-1.55712
1.74698
0.159141
2.49279
1.79465
1.95875
2.50891
0.41927
1.93352
-1.33392
0.363792
-2.40114
-1.39275
-2.23544
-2.43349
-0.921306
-2.22312
0.865804
-0.869025
2.2074
0.931457
2.41543
2.25186
1.3822
2.41343
-0.362634
1.3318
-1.92175
-0.437037
-2.49437
-1.98253
-1.78575
-2.51066
-0.157227
-1.74935
1.55485
-0.0882722
2.47037
1.6186
2.11905
2.49507
0.678641
2.09252
-1.11302
0.616939
-2.33499
-1.17377
-2.35989
1.17478
2.35265
-0.60664
2.32164
-2.07593
1.09559
-2.47785
-0.69601
-1.60777
-2.13121
0.0865141
-2.47253
1.73526
-1.54332
2.49147
0.180561
1.96794
1.81201
0.435268
2.51233
-1.31958
1.92214
-2.39567
0.343523
-2.24053
-1.41137
-0.935141
-2.43906
0.849632
-2.21235
2.19782
-0.847674
2.4168
0.95345
1.39403
2.2629
-0.344698
2.40734
-1.90683
1.31286
-2.49005
-0.459293
-1.79336
-1.99766
-0.173825
-2.51102
1.53714
-1.73673
2.46134
-0.0717002
2.12263
1.62994
0.692624
2.49417
-1.09509
2.07913
-2.32327
0.599367
-2.36096
-1.18615
1.19284
-0.588322
2.36069
-2.06533
2.31421
-2.48001
1.07668
-1.62075
-0.717499
0.071116
-2.14498
1.72493
-2.47045
2.49095
-1.52667
1.978
0.20244
0.449891
1.82844
-1.30811
2.5142
-2.39201
1.90776
-2.24699
0.321514
-0.948796
-1.42942
0.836374
-2.4439
2.19078
-2.20011
2.41926
-0.824697
1.40611
0.974976
-0.329037
2.27337
-1.89516
2.40199
-2.48706
1.2949
-1.80144
-0.478838
-0.189818
-2.00885
1.52154
-2.50946
2.45289
-1.7237
2.1251
-0.0558134
0.705719
1.63857
-1.07864
2.49141
-2.31225
2.06612
-2.36026
0.582532
-1.19688
-0.569386
1.21082
-2.05554
2.36914
-2.48384
2.30808
-1.6341
1.05832
0.0555027
-0.737403
1.71529
-2.15582
2.49307
-2.46661
1.9897
-1.50885
0.464425
0.224641
-1.29743
1.84249
-2.39116
2.51332
-2.2565
1.89186
-0.962854
0.298199
0.824039
-1.44699
2.18576
-2.44684
2.42482
-2.18754
1.41898
-0.802105
-0.315115
0.996045
-1.88564
2.28244
-2.48704
2.39692
-1.81146
1.27983
-0.204684
-0.49528
1.50767
-2.01656
2.44586
-2.50498
2.129
-1.71082
0.718001
-0.0412321
-1.06419
1.64635
-2.30178
2.48755
-2.3597
2.05367
-1.20696
0.567776
-0.550054
-2.04685
1.2305
-2.48889
2.37818
-1.65007
2.30279
0.0374639
1.04169
1.70599
-0.756355
2.49667
-2.16517
2.0036
-2.46093
0.48184
-1.49142
-1.28641
0.245441
-2.39246
1.85498
-2.26826
2.50982
-0.979534
1.87474
0.810525
0.275783
2.1828
-1.46399
2.43283
-2.44912
1.43341
-2.17472
-0.300383
-0.78171
-1.87817
1.0148
-2.49047
2.29079
-1.82318
2.39186
-0.220103
1.26705
1.49493
-0.507708
2.44211
-2.02183
2.13491
-2.49918
0.730362
-1.69745
-1.05014
-0.0280729
-2.29314
1.65341
-2.36078
2.48474
-1.21629
2.04194
0.554011
-2.0371
-0.529796
-2.4954
1.25145
-1.6695
2.38862
0.0165998
2.29719
1.69424
1.025
2.49978
-0.77436
2.02046
-2.17454
0.502491
-2.45524
-1.27336
-1.47399
-2.39283
0.264353
-2.28216
1.86579
-0.999757
2.5061
0.795378
1.85743
2.17952
0.254442
2.44217
-1.4792
1.45106
-2.45189
-0.284176
-2.16371
-1.87161
-0.763583
-2.49546
1.03013
-1.83763
2.29738
-0.237354
2.38773
1.48364
1.25561
2.44081
-0.518008
2.14328
-2.02495
0.745158
-2.49362
-1.03633
-1.68482
-2.28662
-0.0148012
-2.36314
1.66029
-1.22678
2.48295
0.540113
2.03209
-2.02565
-2.50204
-0.507023
-1.69019
1.27267
-0.00806798
2.3983
1.67816
2.29079
2.50144
1.00645
2.03792
-0.793245
0.525782
-2.1835
-1.25589
-2.45022
-2.39094
-1.4572
-2.29676
0.283192
-1.0218
1.87577
0.777015
2.50281
2.17391
1.84224
2.45258
0.234329
1.47081
-1.49367
-0.265939
-2.45483
-1.86323
-2.15572
-2.50141
-0.748993
-1.85472
1.04309
-0.255902
2.30182
1.47195
2.38335
2.44079
1.24557
2.15525
-0.528165
0.762394
-2.02834
-1.02214
-2.48822
-2.28056
-1.67342
-2.36785
-0.0015825
-1.23968
1.6689
0.526246
2.48216
2.02295
-2.50563
-2.012
-1.71055
-0.483119
-0.0353988
1.29363
1.6588
2.40497
2.49931
2.28137
2.05345
0.98644
0.551271
-0.813474
-1.23486
-2.19253
-2.38579
-2.44427
-2.30891
-1.44074
-1.04491
0.302102
0.755302
1.88711
2.16603
2.50057
2.46168
1.829
1.4912
0.216615
-0.244476
-1.50811
-1.85262
-2.45907
-2.5071
-2.14962
-1.87228
-0.737858
-0.276542
1.0535
1.45849
2.30553
2.44189
2.37792
2.16922
1.23496
0.781742
-0.538607
-1.00573
-2.03365
-2.27495
-2.4843
-2.37499
-1.66183
-1.25433
0.0119425
0.510784
1.67899
2.01345
2.48341
-2.50565
-1.72836
-1.99549
-0.0615104
-0.460182
1.63704
1.31156
2.49284
2.40839
2.06643
2.26831
0.575953
0.964896
-1.21211
-0.83283
-2.37621
-2.20103
-2.31799
-2.43747
-1.06762
-1.42302
0.732513
0.321126
2.15498
1.89942
2.46786
2.50073
1.51187
1.81729
-0.221341
0.200313
-1.83975
-1.52149
-2.51014
-2.4646
-1.88976
-2.14522
-0.299077
-0.727753
1.44385
1.06215
2.44202
2.30825
2.18347
2.37224
0.803611
1.22248
-0.987733
-0.551106
-2.26945
-2.04027
-2.3828
-2.48203
-1.27138
-1.65019
0.492872
0.0275381
2.004
1.69039
2.4855
-1.74096
-2.5028
-0.0843398
-1.97869
1.61532
-0.439207
2.48462
1.32484
2.07562
2.40804
0.597509
2.25424
-1.18877
0.943434
-2.36426
-0.850476
-2.3241
-2.20709
-1.08737
-2.4302
0.709498
-1.4052
2.14115
0.340944
2.47174
1.91194
1.53068
2.50212
-0.198246
1.80782
-1.82401
0.184837
-2.51075
-1.53425
-1.90634
-2.46925
-0.321418
-2.14131
1.42735
-0.717727
2.4399
1.07151
2.1977
2.31022
0.826039
2.36547
-0.968909
1.20887
-2.26252
-0.566229
-2.39125
-2.04874
-1.29062
-2.47964
0.473662
-1.63813
1.99336
0.0447684
2.48751
1.704
-1.74946
-0.10268
-2.49793
1.59751
-1.9643
2.47641
-0.422312
2.0817
1.33506
0.616211
2.40566
-1.1677
2.24117
-2.35239
0.925383
-2.32708
-0.865897
-1.10438
-2.21193
0.687377
-2.42253
2.12706
-1.38891
2.47299
0.359789
1.5465
1.92501
-0.175474
2.50363
-1.80735
1.79924
-2.50955
0.171199
-1.92025
-1.54615
-0.343306
-2.47251
1.40925
-2.13508
2.43642
-0.706622
2.21012
1.08183
0.847425
2.31306
-0.948931
2.35741
-2.25492
1.19358
-2.4
-0.58237
-1.31001
-2.05864
0.452919
-2.47714
1.9811
-1.62413
2.49005
0.0631647
1.71854
-0.115882
-1.75645
1.58429
-2.49455
2.47032
-1.95294
2.08784
-0.409517
0.631831
1.34381
-1.15042
2.40563
-2.34156
2.23139
-2.32945
0.910974
-1.11954
-0.878784
0.668126
-2.21781
2.11345
-2.41715
2.47239
-1.37437
1.56056
0.376541
-0.154739
1.93723
-1.79147
2.50563
-2.50638
1.79053
-1.93229
0.158528
-0.364379
-1.55548
1.39159
-2.47371
2.43127
-2.1263
2.22005
-0.69254
0.868027
1.0932
-0.929415
2.31628
-2.24731
2.34957
-2.4075
1.17685
-1.32944
-0.599479
0.431155
-2.0681
1.96875
-2.47447
2.49217
-1.60905
1.7331
0.0833447
-0.127112
1.57478
-1.76396
2.46879
-2.49526
2.09547
-1.94546
0.645616
-0.397497
-1.13571
1.35412
-2.33387
2.4101
-2.33348
2.22708
-1.13303
0.898688
0.650951
-0.89244
2.10111
-2.22615
2.47257
-2.4159
1.57301
-1.36255
-0.136557
0.392519
-1.77629
1.94795
-2.50322
2.50652
-1.94353
1.78207
-0.383335
0.146252
1.37442
-1.56283
2.42494
-2.47154
2.22902
-2.11535
0.886855
-0.676495
-0.911303
1.10655
-2.239
2.31963
-2.41443
2.34165
-1.34861
1.16057
0.410402
-0.617197
1.95625
-2.07749
2.49369
-2.47064
1.74842
-1.59381
0.103861
1.56778
-0.140061
2.47072
-1.77545
2.10558
-2.4996
0.660661
-1.94043
-1.12306
-0.38377
-2.32986
1.37007
-2.33941
2.41976
-1.14721
2.22605
0.634652
0.886556
2.09153
-0.910372
2.47405
-2.23932
1.58488
-2.41717
-0.119137
-1.35221
-1.76293
0.408028
-2.50147
1.95794
-1.95385
2.50487
-0.401341
1.77238
1.35779
0.13522
2.41948
-1.56895
2.23715
-2.46765
0.903978
-2.1023
-0.893576
-0.659899
-2.23113
1.12056
-2.42137
2.3243
-1.36619
2.33384
0.390506
1.14456
1.94397
-0.634118
2.4962
-2.08741
1.76369
-2.46708
0.123812
-1.57807
1.55941
2.47388
-0.15646
2.11938
-1.79236
0.677752
-2.50703
-1.111
-1.9338
-2.32744
-0.36581
-2.34837
1.39198
-1.16377
2.4342
0.619059
2.22447
2.08352
0.870126
2.47714
-0.93344
1.59861
-2.25689
-0.102049
-2.41874
-1.75133
-1.33926
-2.50049
0.42357
-1.965
1.96552
-0.419553
2.50094
1.34268
1.76094
2.41472
0.12443
2.24505
-1.5738
0.921382
-2.4642
-0.876603
-2.08979
-2.22417
-0.642926
-2.42755
1.13444
-1.38321
2.32979
0.371192
2.32773
1.93345
1.12867
2.49943
-0.651294
1.77882
-2.09744
0.144158
-2.46498
-1.56322
2.47684
1.54666
2.13495
-0.178336
0.697161
-1.81265
-1.09665
-2.51525
-2.32566
-1.92348
-2.36004
-0.341262
-1.18215
1.4181
0.602141
2.44912
2.07567
2.21942
2.48281
0.846581
1.61425
-0.96182
-0.0844166
-2.27422
-1.73941
-2.41662
-2.50086
-1.32226
-1.9779
0.439517
-0.43772
1.96921
1.32773
2.4945
2.41034
1.74988
2.25452
0.113269
0.939236
-1.57988
-0.860008
-2.46236
-2.21675
-2.08
-2.43403
-0.62714
-1.40057
1.14945
0.353098
2.33624
1.92376
2.32283
2.50325
1.11379
1.79535
-0.669804
0.164399
-2.10921
-1.54976
-2.46382
2.47667
2.15017
1.52945
0.719657
-0.205334
-1.07962
-1.83461
-2.32304
-2.52027
-2.37185
-1.90831
-1.20277
-0.311888
0.582741
1.44625
2.06783
2.46007
2.48939
2.20743
1.63141
0.817224
-0.0643125
-0.992564
-1.72685
-2.28732
-2.50221
-2.4068
-1.99141
-1.30254
-0.457224
0.452569
1.31177
1.97058
2.40698
2.48789
2.2649
1.74006
0.957811
0.102122
-0.841875
-1.58968
-2.20913
-2.46484
-2.4412
-2.07265
-1.41775
-0.612616
0.334589
1.16563
1.91381
2.3454
2.50848
2.31875
1.81274
1.09846
0.184716
-0.689394
-1.5361
-2.12363
-2.46436
2.16448
2.47195
0.743424
1.50759
-1.06002
-0.234073
-2.31703
-1.85574
-2.38283
-2.52098
-1.22493
-1.88761
0.561917
-0.280837
2.05822
1.47185
2.49525
2.46543
1.65043
2.18805
-0.0424248
0.784324
-1.71326
-1.01994
-2.5025
-2.29376
-2.0058
-2.39145
-0.478574
-1.28327
1.29526
0.461115
2.4031
1.97262
2.27538
2.48595
0.978325
1.7319
-0.822431
0.0885996
-2.20105
-1.60395
-2.44767
-2.47275
-1.43583
-2.06785
0.314431
-0.596792
1.90363
1.18387
2.51353
2.35685
1.83044
2.31603
0.20674
1.08139
-1.52213
-0.711463
-2.46626
-2.13949
2.17616
0.766805
2.46415
-1.03728
1.48264
-2.30781
-0.262545
-2.39193
-1.87275
-1.2461
-2.51755
0.53953
-1.86421
2.04604
-0.250331
2.50036
1.49189
1.66935
2.46422
-0.0197507
2.16524
-1.69732
0.752251
-2.50175
-1.04139
-2.02061
-2.29411
-0.500284
-2.37682
1.27716
-1.26916
2.39756
0.470311
2.28626
1.98065
0.99953
2.49001
-0.801973
1.72524
-2.19089
0.0702378
-2.45364
-1.62426
-1.45502
-2.48392
0.293265
-2.06381
1.8914
-0.578401
2.51689
1.20625
1.84887
2.36987
0.229854
2.31284
-1.50725
1.06281
-2.46712
-0.736411
-2.15671
0.789845
2.18475
-1.01331
2.45387
-2.29608
1.45814
-2.39737
-0.2889
-1.26581
-1.88569
0.516238
-2.51024
2.03266
-1.8413
2.50327
-0.223691
1.68661
1.50696
0.00378298
2.45847
-1.68024
2.14292
-2.50001
0.726542
-2.03396
-1.05696
-0.522396
-2.29388
1.25733
-2.36816
2.39112
-1.25994
2.29592
0.485733
1.02019
1.99865
-0.779842
2.4982
-2.17927
1.71618
-2.45889
0.0466228
-1.47356
-1.64999
0.270492
-2.49646
1.87626
-2.05655
2.51863
-0.556142
1.86623
1.2319
0.253326
2.3843
-1.48969
2.30745
-2.46626
1.04148
-2.17411
-0.762367
0.811166
-0.989748
2.19204
-2.28182
2.44253
-2.40019
1.4353
-1.28384
-0.311031
0.494149
-1.89571
2.01801
-2.50206
2.50361
-1.82019
1.70264
-0.202222
0.0263701
1.51793
-1.66318
2.45324
-2.49634
2.12525
-2.04614
0.708609
-0.544457
-1.06728
1.23759
-2.29729
2.38312
-2.36765
2.30349
-1.25005
1.04052
0.508836
-0.757662
2.023
-2.1669
2.50675
-2.46193
1.70112
-1.49138
0.0172045
0.246574
-1.67724
1.85957
-2.50724
2.51745
-2.0445
1.88114
-0.528629
0.277419
1.25899
-1.47023
2.39738
-2.46294
2.29978
-2.18882
1.01733
-0.78862
-0.966569
0.830322
-2.26725
2.19828
-2.40182
2.43277
-1.29929
1.41475
0.473049
-0.330045
2.00257
-1.90341
2.50307
-2.49559
1.71658
-1.80292
0.0470103
-0.184108
-1.64586
1.52714
-2.49206
2.45138
-2.05747
2.11566
-0.564723
0.69722
1.21804
-1.07599
2.37386
-2.30453
2.31014
-2.371
1.05915
-1.23611
-0.736744
0.537756
-2.15342
2.04701
-2.46362
2.50966
-1.50811
1.6801
0.223826
-0.0159642
1.8416
-1.70302
2.51326
-2.51224
1.89408
-2.02737
0.300275
-0.498248
-1.44996
1.28601
-2.45573
2.40669
-2.20016
2.28862
-0.813658
0.992635
-0.94515
-2.25406
0.848786
-2.40254
2.20408
-1.3138
2.42467
0.452508
1.39755
1.98807
-0.347543
2.5017
-1.91141
1.72861
-2.49115
0.0667991
-1.78992
-1.62955