# vtk DataFile Version 3.1
vtk output
ASCII
DATASET POLYDATA
POINTS 7000 FLOAT
-0.215635 -0.944757  -4.57863
 0.215635 -0.944757  -4.57863
-0.604195 -0.757636  -4.57863
 0.604195 -0.757636  -4.57863
-0.873086 -0.420456  -4.57863
 0.873086 -0.420456  -4.57863
   -0.969053 -6.88864e-17     -4.57863
0.969053        0 -4.57863
-0.873086  0.420456  -4.57863
0.873086 0.420456 -4.57863
-0.604195  0.757636  -4.57863
0.604195 0.757636 -4.57863
-0.215635  0.944757  -4.57863
0.215635 0.944757 -4.57863
-0.152386  -1.00509  -4.12247
 0.298798 -0.971675  -4.12247
-0.573389 -0.839439  -4.12247
 0.690801 -0.745805  -4.12247
-0.880824 -0.507524  -4.12247
0.945983 -0.37222 -4.12247
   -1.0138 -0.0750883   -4.12247
   1.0138 0.0750883  -4.12247
-0.945983   0.37222  -4.12247
0.880824 0.507524 -4.12247
-0.690801  0.745805  -4.12247
0.573389 0.839439 -4.12247
-0.298798  0.971675  -4.12247
0.152386  1.00509 -4.12247
0.000837188    -1.10037     -3.6973
 0.478187 -0.991036   -3.6973
-0.476679 -0.991763   -3.6973
 0.860826 -0.685415   -3.6973
-0.859782 -0.686724   -3.6973
  1.07297 -0.244039   -3.6973
  -1.0726 -0.245672   -3.6973
  1.0726 0.245672  -3.6973
-1.07297 0.244039  -3.6973
0.859782 0.686724  -3.6973
-0.860826  0.685415   -3.6973
0.476679 0.991763  -3.6973
-0.478187  0.991036   -3.6973
-0.000837188      1.10037      -3.6973
0.246831 -1.18201  -3.3145
-0.290466  -1.17205   -3.3145
 0.735241 -0.957855   -3.3145
-0.770233 -0.929949   -3.3145
  1.07803 -0.543989   -3.3145
 -1.09745 -0.503664   -3.3145
    1.2073 -0.0223786    -3.3145
  -1.2073 0.0223786   -3.3145
 1.09745 0.503664  -3.3145
-1.07803 0.543989  -3.3145
0.770233 0.929949  -3.3145
-0.735241  0.957855   -3.3145
0.290466  1.17205  -3.3145
-0.246831   1.18201   -3.3145
-0.0195113   -1.33931   -2.93076
0.563524 -1.21514 -2.93076
-0.598682  -1.19821  -2.93076
  1.03495 -0.850298  -2.93076
 -1.05928 -0.819789  -2.93076
  1.30139 -0.317046  -2.93076
 -1.31007 -0.279002  -2.93076
 1.31007 0.279002 -2.93076
-1.30139 0.317046 -2.93076
 1.05928 0.819789 -2.93076
-1.03495 0.850298 -2.93076
0.598682  1.19821 -2.93076
-0.563524   1.21514  -2.93076
0.0195113   1.33931  -2.93076
 0.31807 -1.43063 -2.59777
-0.334156  -1.42696  -2.59777
0.907299 -1.15095 -2.59777
-0.920199  -1.14066  -2.59777
  1.31683 -0.643307  -2.59777
 -1.32398 -0.628441  -2.59777
   1.46554 -0.0082499   -2.59777
 -1.46554 0.0082499  -2.59777
 1.32398 0.628441 -2.59777
-1.31683 0.643307 -2.59777
0.920199  1.14066 -2.59777
-0.907299   1.15095  -2.59777
0.334156  1.42696 -2.59777
-0.31807  1.43063 -2.59777
-0.000651516     -1.54683     -2.36597
-0.671732  -1.39336  -2.36597
0.670558 -1.39393 -2.36597
 -1.20977 -0.963924  -2.36597
  1.20895 -0.964942  -2.36597
 -1.50819 -0.343567  -2.36597
   1.5079 -0.344837  -2.36597
 -1.5079 0.344837 -2.36597
 1.50819 0.343567 -2.36597
-1.20895 0.964942 -2.36597
 1.20977 0.963924 -2.36597
-0.670558   1.39393  -2.36597
0.671732  1.39336 -2.36597
0.000651516     1.54683    -2.36597
-0.359754  -1.59612  -2.08714
0.368405 -1.59415 -2.08714
-1.01666 -1.28197 -2.08714
  1.0236 -1.27643 -2.08714
 -1.4722  -0.7139 -2.08714
  1.47605 -0.705905  -2.08714
   -1.63616 -0.00443671    -2.08714
   1.63616 0.00443671   -2.08714
-1.47605 0.705905 -2.08714
  1.4722   0.7139 -2.08714
 -1.0236  1.27643 -2.08714
 1.01666  1.28197 -2.08714
-0.368405   1.59415  -2.08714
0.359754  1.59612 -2.08714
0.00252612   -1.71462   -1.82062
-0.74167 -1.54592 -1.82062
0.746222 -1.54372 -1.82062
-1.33897 -1.07102 -1.82062
 1.34212 -1.06707 -1.82062
 -1.67107 -0.384002  -1.82062
  1.67219 -0.379076  -1.82062
-1.67219 0.379076 -1.82062
 1.67107 0.384002 -1.82062
-1.34212  1.06707 -1.82062
 1.33897  1.07102 -1.82062
-0.746222   1.54372  -1.82062
 0.74167  1.54592 -1.82062
-0.00252612     1.71462    -1.82062
0.389316 -1.73923 -1.56334
-0.40386 -1.73591 -1.56334
 1.10538 -1.39807 -1.56334
-1.11705 -1.38877 -1.56334
 1.60252 -0.78001 -1.56334
 -1.60899 -0.766569  -1.56334
    1.78225 -0.00745936    -1.56334
  -1.78225 0.00745936   -1.56334
 1.60899 0.766569 -1.56334
-1.60252  0.78001 -1.56334
 1.11705  1.38877 -1.56334
-1.10538  1.39807 -1.56334
 0.40386  1.73591 -1.56334
-0.389316   1.73923  -1.56334
-0.0255283   -1.83922   -1.31305
0.775006 -1.66815 -1.31305
-0.821007    -1.646  -1.31305
 1.42204 -1.16669 -1.31305
-1.45387 -1.12677 -1.31305
  1.78742 -0.434153  -1.31305
 -1.79878 -0.384376  -1.31305
 1.79878 0.384376 -1.31305
-1.78742 0.434153 -1.31305
 1.45387  1.12677 -1.31305
-1.42204  1.16669 -1.31305
0.821007    1.646 -1.31305
-0.775006   1.66815  -1.31305
0.0255283   1.83922  -1.31305
0.369874 -1.84975 -1.06804
-0.46933 -1.82705 -1.06804
 1.13582 -1.50608 -1.06804
-1.21558 -1.44248 -1.06804
  1.6768 -0.86412 -1.06804
 -1.72107 -0.772208  -1.06804
   1.88567 -0.0510072   -1.06804
 -1.88567 0.0510072  -1.06804
 1.72107 0.772208 -1.06804
 -1.6768  0.86412 -1.06804
 1.21558  1.44248 -1.06804
-1.13582  1.50608 -1.06804
 0.46933  1.82705 -1.06804
-0.369874   1.84975  -1.06804
-0.0827785   -1.92173  -0.826981
 0.759227  -1.76734 -0.826981
-0.908389   -1.6955 -0.826981
  1.45086   -1.2629 -0.826981
 -1.55408  -1.13346 -0.826981
  1.85513 -0.508329 -0.826981
 -1.89197 -0.346922 -0.826981
  1.89197  0.346922 -0.826981
 -1.85513  0.508329 -0.826981
  1.55408   1.13346 -0.826981
 -1.45086    1.2629 -0.826981
 0.908389    1.6955 -0.826981
-0.759227   1.76734 -0.826981
0.0827785   1.92173 -0.826981
 0.316914  -1.92521 -0.588781
 -0.54979  -1.87206 -0.588781
  1.12085  -1.59705 -0.588781
  -1.3076  -1.44812 -0.588781
  1.70279 -0.952578 -0.588781
 -1.80643 -0.737368 -0.588781
  1.94747 -0.119433 -0.588781
 -1.94747  0.119433 -0.588781
  1.80643  0.737368 -0.588781
 -1.70279  0.952578 -0.588781
   1.3076   1.44812 -0.588781
 -1.12085   1.59705 -0.588781
  0.54979   1.87206 -0.588781
-0.316914   1.92521 -0.588781
-0.159369  -1.96295  -0.35252
0.708106 -1.83771 -0.35252
-0.995279  -1.69941  -0.35252
 1.43533 -1.34848 -0.35252
-1.63406 -1.09928 -0.35252
  1.87827 -0.592171  -0.35252
  -1.9492 -0.281425  -0.35252
  1.9492 0.281425 -0.35252
-1.87827 0.592171 -0.35252
 1.63406  1.09928 -0.35252
-1.43533  1.34848 -0.35252
0.995279  1.69941 -0.35252
-0.708106   1.83771  -0.35252
0.159369  1.96295 -0.35252
 0.242153  -1.96364 -0.117384
 -0.63382  -1.87425 -0.117384
  1.07017  -1.66411 -0.117384
 -1.38426  -1.41363 -0.117384
  1.68622  -1.03499 -0.117384
 -1.86053 -0.673034 -0.117384
  1.96829  -0.20087 -0.117384
 -1.96829   0.20087 -0.117384
  1.86053  0.673034 -0.117384
 -1.68622   1.03499 -0.117384
  1.38426   1.41363 -0.117384
 -1.07017   1.66411 -0.117384
  0.63382   1.87425 -0.117384
-0.242153   1.96364 -0.117384
-0.242153  -1.96364  0.117384
 0.63382 -1.87425 0.117384
-1.07017 -1.66411 0.117384
 1.38426 -1.41363 0.117384
-1.68622 -1.03499 0.117384
  1.86053 -0.673034  0.117384
-1.96829 -0.20087 0.117384
 1.96829  0.20087 0.117384
-1.86053 0.673034 0.117384
 1.68622  1.03499 0.117384
-1.38426  1.41363 0.117384
 1.07017  1.66411 0.117384
-0.63382  1.87425 0.117384
0.242153  1.96364 0.117384
0.159369 -1.96295  0.35252
-0.708106  -1.83771   0.35252
0.995279 -1.69941  0.35252
-1.43533 -1.34848  0.35252
 1.63406 -1.09928  0.35252
 -1.87827 -0.592171   0.35252
   1.9492 -0.281425   0.35252
 -1.9492 0.281425  0.35252
 1.87827 0.592171  0.35252
-1.63406  1.09928  0.35252
1.43533 1.34848 0.35252
-0.995279   1.69941   0.35252
0.708106  1.83771  0.35252
-0.159369   1.96295   0.35252
-0.316914  -1.92521  0.588781
 0.54979 -1.87206 0.588781
-1.12085 -1.59705 0.588781
  1.3076 -1.44812 0.588781
 -1.70279 -0.952578  0.588781
  1.80643 -0.737368  0.588781
 -1.94747 -0.119433  0.588781
 1.94747 0.119433 0.588781
-1.80643 0.737368 0.588781
 1.70279 0.952578 0.588781
 -1.3076  1.44812 0.588781
 1.12085  1.59705 0.588781
-0.54979  1.87206 0.588781
0.316914  1.92521 0.588781
0.0827785  -1.92173  0.826981
-0.759227  -1.76734  0.826981
0.908389  -1.6955 0.826981
-1.45086  -1.2629 0.826981
 1.55408 -1.13346 0.826981
 -1.85513 -0.508329  0.826981
  1.89197 -0.346922  0.826981
-1.89197 0.346922 0.826981
 1.85513 0.508329 0.826981
-1.55408  1.13346 0.826981
 1.45086   1.2629 0.826981
-0.908389    1.6955  0.826981
0.759227  1.76734 0.826981
-0.0827785    1.92173   0.826981
-0.369874  -1.84975   1.06804
 0.46933 -1.82705  1.06804
-1.13582 -1.50608  1.06804
 1.21558 -1.44248  1.06804
 -1.6768 -0.86412  1.06804
  1.72107 -0.772208   1.06804
  -1.88567 -0.0510072    1.06804
  1.88567 0.0510072   1.06804
-1.72107 0.772208  1.06804
 1.6768 0.86412 1.06804
-1.21558  1.44248  1.06804
1.13582 1.50608 1.06804
-0.46933  1.82705  1.06804
0.369874  1.84975  1.06804
0.0255283  -1.83922   1.31305
-0.775006  -1.66815   1.31305
0.821007   -1.646  1.31305
-1.42204 -1.16669  1.31305
 1.45387 -1.12677  1.31305
 -1.78742 -0.434153   1.31305
  1.79878 -0.384376   1.31305
-1.79878 0.384376  1.31305
 1.78742 0.434153  1.31305
-1.45387  1.12677  1.31305
1.42204 1.16669 1.31305
-0.821007     1.646   1.31305
0.775006  1.66815  1.31305
-0.0255283    1.83922    1.31305
-0.389316  -1.73923   1.56334
 0.40386 -1.73591  1.56334
-1.10538 -1.39807  1.56334
 1.11705 -1.38877  1.56334
-1.60252 -0.78001  1.56334
  1.60899 -0.766569   1.56334
   -1.78225 -0.00745936     1.56334
   1.78225 0.00745936    1.56334
-1.60899 0.766569  1.56334
1.60252 0.78001 1.56334
-1.11705  1.38877  1.56334
1.10538 1.39807 1.56334
-0.40386  1.73591  1.56334
0.389316  1.73923  1.56334
-0.00252612    -1.71462     1.82062
 0.74167 -1.54592  1.82062
-0.746222  -1.54372   1.82062
 1.33897 -1.07102  1.82062
-1.34212 -1.06707  1.82062
  1.67107 -0.384002   1.82062
 -1.67219 -0.379076   1.82062
 1.67219 0.379076  1.82062
-1.67107 0.384002  1.82062
1.34212 1.06707 1.82062
-1.33897  1.07102  1.82062
0.746222  1.54372  1.82062
-0.74167  1.54592  1.82062
0.00252612    1.71462    1.82062
0.359754 -1.59612  2.08714
-0.368405  -1.59415   2.08714
 1.01666 -1.28197  2.08714
 -1.0236 -1.27643  2.08714
 1.4722 -0.7139 2.08714
 -1.47605 -0.705905   2.08714
    1.63616 -0.00443671     2.08714
  -1.63616 0.00443671    2.08714
[...]
POINT_DATA 7000
SCALARS Field double
LOOKUP_TABLE default
-0.910824
-0.910878
-0.910984
-0.911164
-0.911336
-0.911614
-0.911713
-0.911996
-0.911887
-0.912064
-0.911813
-0.911823
-0.911622
-0.911583
-0.30521
-0.305287
-0.305581
-0.305911
-0.306401
-0.306898
-0.307489
-0.307849
-0.308354
-0.308458
-0.308738
-0.308726
-0.308837
-0.308812
0.465725
0.465634
0.465338
0.464815
0.464754
0.463694
0.463879
0.462907
0.462919
0.46256
0.462331
0.462324
0.462089
0.462113
0.852041
0.851634
0.851906
0.851366
0.851215
0.851306
0.850649
0.850986
0.850614
0.850565
0.850805
0.850381
0.850716
0.850478
0.713199
0.71364
0.712798
0.713556
0.713251
0.713434
0.714026
0.713805
0.714302
0.714515
0.714309
0.714956
0.714468
0.714866
0.23473
0.234098
0.23514
0.234189
0.235156
0.235437
0.235665
0.236509
0.236694
0.236927
0.237578
0.237
0.237732
0.237391
-0.159376
-0.159851
-0.15876
-0.158992
-0.158465
-0.157619
-0.158367
-0.156747
-0.157418
-0.156593
-0.156271
-0.156484
-0.155831
-0.15607
-0.555199
-0.554646
-0.555052
-0.55404
-0.553986
-0.554135
-0.553092
-0.553888
-0.552706
-0.552862
-0.552837
-0.552144
-0.552748
-0.552354
-0.749388
-0.749559
-0.748941
-0.749084
-0.748617
-0.748705
-0.74914
-0.748366
-0.748844
-0.748482
-0.748139
-0.748837
-0.748159
-0.748734
-0.72181
-0.721797
-0.721334
-0.721697
-0.721706
-0.721924
-0.722426
-0.72211
-0.722306
-0.722164
-0.722113
-0.722723
-0.722723
-0.723202
-0.508312
-0.508307
-0.508005
-0.508024
-0.508481
-0.50906
-0.509392
-0.509932
-0.509669
-0.509948
-0.510043
-0.510246
-0.51102
-0.511081
-0.180417
-0.179725
-0.180037
-0.179824
-0.180294
-0.181169
-0.181747
-0.182081
-0.182465
-0.18213
-0.182604
-0.183038
-0.183264
-0.183834
0.178558
0.178066
0.17928
0.17867
0.178172
0.17776
0.176661
0.176438
0.176482
0.176121
0.176295
0.175786
0.17513
0.175065
0.486543
0.487786
0.486856
0.487585
0.487228
0.486084
0.486043
0.485217
0.485282
0.485814
0.485283
0.485088
0.484832
0.484477
0.681982
0.681102
0.682885
0.682115
0.681981
0.682067
0.680646
0.681227
0.681251
0.681103
0.681768
0.681122
0.680953
0.6809
0.72567
0.727078
0.72581
0.727052
0.726887
0.72601
0.726708
0.725985
0.726502
0.727512
0.726924
0.72728
0.726896
0.726947
0.613611
0.612609
0.614308
0.613686
0.614052
0.614462
0.613632
0.61446
0.615082
0.614876
0.616149
0.615472
0.615734
0.615668
0.36649
0.36737
0.36646
0.367778
0.367706
0.367563
0.36833
0.368392
0.368695
0.370237
0.369479
0.370443
0.369999
0.370302
0.0362642
0.0357486
0.0367401
0.036526
0.0371415
0.0373561
0.0374937
0.0379998
0.0391195
0.0387253
0.0401839
0.0394759
0.0401186
0.0399421
-0.309918
-0.309744
-0.309778
-0.309089
-0.309091
-0.3087
-0.308522
-0.307845
-0.30787
-0.306576
-0.307112
-0.306235
-0.306615
-0.306275
-0.592788
-0.592596
-0.592592
-0.592289
-0.591985
-0.592162
-0.591702
-0.591699
-0.590961
-0.591102
-0.59045
-0.590746
-0.590349
-0.59052
-0.742367
-0.742766
-0.742036
-0.742443
-0.742279
-0.742156
-0.742577
-0.7422
-0.742257
-0.742104
-0.741919
-0.742106
-0.742087
-0.742103
-0.710479
-0.709817
-0.710822
-0.709955
-0.710522
-0.710863
-0.710899
-0.711393
-0.711526
-0.711234
-0.712068
-0.711372
-0.712116
-0.711916
-0.479475
-0.479089
-0.480316
-0.480006
-0.48046
-0.481383
-0.480674
-0.481888
-0.481736
-0.48195
-0.48285
-0.482512
-0.483441
-0.483195
-0.0862982
-0.0871765
-0.0866312
-0.0878613
-0.088181
-0.0880161
-0.0895084
-0.0888686
-0.0897564
-0.0902055
-0.090029
-0.091357
-0.0908147
-0.0914507
0.370031
0.370455
0.369089
0.369405
0.368759
0.367805
0.368442
0.367171
0.367404
0.367205
0.366209
0.366789
0.36563
0.366067
0.672057
0.672889
0.671511
0.672635
0.671499
0.671347
0.671128
0.670411
0.670328
0.670579
0.669629
0.670708
0.669727
0.67032
0.8408
0.840235
0.841251
0.840328
0.840713
0.840733
0.840022
0.840833
0.84028
0.840708
0.841128
0.840785
0.841515
0.841298
0.529245
0.529702
0.529349
0.529948
0.530077
0.52979
0.531012
0.530128
0.531767
0.531363
0.532275
0.532664
0.53289
0.533212
-0.134654
-0.134665
-0.134299
-0.134121
-0.134088
-0.133072
-0.133795
-0.131936
-0.132849
-0.131073
-0.13133
-0.130348
-0.130107
-0.129821
-0.804327
-0.804376
-0.804233
-0.804192
-0.804213
-0.80373
-0.803964
-0.803081
-0.803203
-0.802455
-0.802134
-0.801891
-0.801408
-0.801412
-0.673235
-0.910861
-0.673226
-0.673332
-0.673534
-0.910906
-0.30536
-0.673323
-0.911025
-0.673497
-0.305192
-0.673825
-0.674213
-0.911169
-0.305961
-0.674136
-0.673787
-0.911399
-0.305559
-0.674614
-0.675055
-0.911575
-0.306969
-0.674901
-0.674518
-0.911843
-0.30641
-0.675608
-0.911868
-0.675365
-0.308009
-0.912093
-0.675511
-0.675234
-0.307425
-0.675728
-0.675787
-0.911894
-0.30862
-0.675678
-0.911974
-0.675759
-0.308227
-0.675776
-0.675764
-0.911739
-0.308847
-0.675736
-0.675759
-0.911694
-0.308646
-0.675716
-0.675733
-0.911599
-0.308872
-0.308805
0.103199
0.103217
0.102811
0.103016
0.465629
0.102795
0.103142
0.465845
0.102439
0.102048
0.465146
0.102378
0.101786
0.465386
0.101477
0.100945
0.464431
0.100668
0.101241
0.46432
0.100347
0.0999416
0.46345
0.0998974
0.100263
0.463308
0.0994102
0.099579
0.462638
0.0994964
0.0997056
0.462772
0.0992432
0.0992118
0.462256
0.0994091
0.0992661
0.462518
0.0991587
0.0992391
0.462147
0.462279
0.723428
0.723366
0.72321
0.722992
0.851488
0.722935
0.72328
0.851695
0.722611
0.722797
0.851086
0.721965
0.722457
0.851216
0.722408
0.722122
0.850964
0.721253
0.72154
0.850512
0.721773
0.721394
0.850814
0.721054
0.721094
0.850188
0.721084
0.72085
0.850386
0.720985
0.721031
0.850351
0.720614
0.720696
0.85007
0.72077
0.720881
0.850423
0.720616
0.720661
0.850019
0.850232
0.853343
0.853093
0.853542
0.853514
0.742761
0.852895
0.852817
0.742234
0.853127
0.853375
0.742923
0.852916
0.85309
0.7422
0.852775
0.85289
0.742675
0.853269
0.853241
0.742907
0.852775
0.852902
0.742734
0.853211
0.853119
0.743379
0.853359
0.853129
0.743276
0.853045
0.852985
0.743423
0.853503
0.853476
0.743905
0.853015
0.85313
0.743443
0.853289
0.853425
0.744047
0.743756
0.495812
0.49604
0.495447
0.495246
0.327175
0.0770388
0.0767407
0.496268
0.496219
0.0773948
0.327729
0.0775991
0.495298
0.49553
0.326733
0.0764385
0.0765256
0.49621
0.49618
0.327872
0.0777591
0.0777012
0.49626
0.496637
0.0769071
0.327475
0.0776583
0.496689
0.496417
0.328012
0.0777982
0.0780263
0.497399
0.497228
0.0782909
0.328731
0.0789365
0.497572
0.49719
0.328796
0.0785421
0.0790528
0.497606
0.497611
0.329429
0.0792897
0.0795949
0.498284
0.498068
0.329813
0.0796714
0.0800889
0.497667
0.497712
0.329575
0.0796159
0.0796718
0.498372
0.498378
0.330348
0.0803942
0.0803895
0.497999
0.498141
0.0796941
0.329783
0.0799531
0.330244
0.0803646
0.0801283
-0.163859
-0.378884
-0.378587
-0.379207
-0.164516
-0.379449
-0.163326
-0.378272
-0.378104
-0.164395
-0.379404
-0.378945
-0.378132
-0.1633
-0.378188
-0.163071
-0.378317
-0.377682
-0.162781
-0.377972
-0.377508
-0.377148
-0.161899
-0.376719
-0.16162
-0.376918
-0.376351
-0.37649
-0.161404
-0.376435
-0.160732
-0.375915
-0.375758
-0.1614
-0.376492
-0.376479
-0.375812
-0.160719
-0.375986
-0.161093
-0.376375
-0.376189
-0.55499
-0.680733
-0.680521
-0.680917
-0.555376
-0.68084
-0.554402
-0.680272
-0.679962
-0.6805
-0.554604
-0.680076
-0.554061
-0.679759
-0.679883
-0.553577
-0.679723
-0.679393
-0.554233
-0.68009
-0.680078
-0.679121
-0.552868
-0.67898
-0.553479
-0.679766
-0.679319
-0.67901
-0.552827
-0.679131
-0.552456
-0.678859
-0.678538
-0.679249
-0.552911
-0.679273
-0.552234
-0.678495
-0.67869
-0.552637
-0.679175
-0.678954
-0.761727
-0.749521
-0.761768
-0.761648
-0.749206
-0.761485
-0.761692
-0.74936
-0.761544
-0.748632
-0.761186
-0.761006
-0.761472
-0.74887
-0.761461
-0.748887
-0.761192
-0.761573
-0.748509
-0.761414
-0.761336
-0.749093
-0.761821
-0.761816
-0.748349
-0.761314
-0.761422
-0.76161
-0.748465
-0.761335
-0.761647
-0.748666
-0.761915
-0.74801
-0.761145
-0.761209
-0.762105
-0.748863
-0.762082
-0.748446
-0.761493
-0.761843
-0.72183
-0.634299
-0.634197
-0.721743
-0.634073
-0.63403
-0.721605
-0.634234
-0.633966
-0.634134
-0.721744
-0.634439
-0.633779
-0.72133
-0.633993
-0.634788
-0.722067
-0.635004
-0.722156
-0.63451
-0.635027
-0.635078
-0.722101
-0.635109
-0.722445
-0.635333
-0.635402
-0.72237
-0.635266
-0.635607
-0.72212
-0.635317
-0.635263
-0.636058
-0.723057
-0.636387
-0.635387
-0.72234
-0.635731
-0.723065
-0.636136
-0.636415
-0.508428
-0.353833
-0.353913
-0.353527
-0.508099
-0.353267
-0.508038
-0.35368
-0.35346
-0.508111
-0.353306
-0.353672
-0.508418
-0.35362
-0.354206
-0.354289
-0.508966
-0.354892
-0.509616
-0.354915
-0.355471
-0.355286
-0.509593
-0.355423
-0.50999
-0.355724
-0.355781
-0.355452
-0.509745
-0.355608
-0.509984
-0.3558
-0.355974
-0.510524
-0.356066
-0.356649
-0.510669
-0.356341
-0.356797
-0.357073
-0.51123
-0.357104
0.000561287
-0.180115
0.0010415
-0.180327
0.00036974
0.000574504
0.00137586
-0.17956
0.00128772
-0.179921
0.00087444
0.000816614
-0.180416
0.000760887
1.52217e-05
-0.180997
0.000280111
-0.000516484
-0.181764
-0.000735208
-0.00122772
-0.00120807
-0.18224
-0.00159842
-0.00136948
-0.182097
-0.00129635
-0.182518
-0.00170837
-0.00175059
-0.00141729
-0.18243
-0.00190608
-0.182848
-0.00188813
-0.00223683
-0.183588
-0.00254855
-0.00296028
-0.183663
-0.00267192
-0.00298058
0.343379
0.178078
0.343074
0.344028
0.179128
0.344479
0.17843
0.343309
0.343724
0.344385
0.178914
0.343823
0.17843
0.343846
0.343445
0.342996
0.177337
0.342173
0.176992
0.342747
0.342065
0.176381
0.341659
0.341663
0.176197
0.341644
0.341491
0.34194
0.176584
0.341966
0.176046
0.341454
0.341348
0.341497
0.17568
0.340899
0.175418
0.341086
0.340762
0.340542
0.174932
0.340542
0.487145
0.601332
0.602116
0.486452
0.600876
0.601067
0.48795
0.602579
0.602469
0.601606
0.487268
0.601926
0.601907
0.486893
0.601137
0.486731
0.601741
0.601233
0.600385
0.485422
0.600012
0.485517
0.600697
0.600376
0.485516
0.600238
0.600759
0.485278
0.600313
0.600362
0.485645
0.600935
0.600567
0.600294
0.485123
0.600075
0.600045
0.484623
0.599787
0.484581
0.599878
0.599765
0.681267
0.723729
0.723186
0.7245
0.682675
0.724936
0.681547
0.72331
0.723924
0.6826
0.72488
0.724482
0.682303
0.724437
0.72451
0.723873
0.681222
0.723278
0.681626
0.72425
0.723888
0.723071
0.68066
0.723524
0.681054
0.72366
0.723703
0.724272
0.681797
0.72464
0.681187
0.723915
0.724014
0.681314
0.72441
0.724001
0.680985
0.723929
0.723848
0.72382
0.680861
0.723812
0.688534
0.726435
0.689245
0.725392
0.687947
0.688001
0.689654
0.727265
0.689706
0.726501
0.688634
0.689276
0.72658
0.68947
0.689006
0.726891
0.689583
0.689607
0.725686
0.688582
0.688645
0.689505
0.72651
0.689425
0.689364
0.726798
0.690309
0.726705
0.68955
0.689847
0.690825
0.727618
0.690722
0.726944
0.690066
0.690134
0.727012
0.690411
0.69029
0.726923
0.690211
0.690282
0.504282
0.612936
0.503732
0.504842
0.614109
0.505156
0.612954
0.503715
0.504299
0.505277
0.614292
0.505217
0.614238
0.504987
0.505398
0.504979
0.613718
0.504844
0.614501
0.505609
0.505726
0.61414
0.50519
0.506062
0.614546
0.505839
0.506111
0.507044
0.615906
0.507615
0.615271
0.506535
0.506856
0.507618
0.615929
0.507411
0.615567
0.50701
0.507153
0.507325
0.615708
0.507287
0.367003
0.207761
0.208104
0.366181
0.207368
0.207325
0.367619
0.208343
0.208613
0.207821
0.36713
0.208459
0.208779
0.367724
0.20877
0.368068
0.208915
0.209234
0.208819
0.367703
0.209289
0.368501
0.209487
0.209702
0.369403
0.210161
0.211082
0.369049
0.210022
0.210488
0.370554
0.211662
0.211764
0.210918
0.369773
0.211187
0.211656
0.370325
0.211615
0.370212
0.211421
0.211575
0.035959
-0.139666
-0.139864
-0.139503
0.0364797
-0.139295
0.0359819
-0.139843
-0.13948
0.0370233
-0.138945
-0.138657
0.0370175
-0.139013
-0.138671
-0.138569
0.0371883
-0.138415
0.037684
-0.138327
-0.137968
-0.137933
0.0382175
-0.137146
0.0383158
-0.137641
-0.137321
-0.136365
0.0398647
-0.135838
0.0391665
-0.136921
-0.136564
0.0401785
-0.135694
-0.135706
0.0397152
-0.136287
-0.136022
-0.135726
0.0400768
-0.135808
-0.463603
-0.309822
-0.463606
-0.309966
-0.463605
-0.463517
-0.463489
-0.309465
-0.46316
-0.309404
-0.463268
-0.463034
-0.308829
-0.462834
-0.462649
-0.308823
-0.462876
-0.462691
-0.308411
-0.462475
-0.462106
-0.462386
-0.30819
-0.462039
-0.461559
-0.307149
-0.461012
-0.307491
-0.46169
-0.461347
-0.460658
-0.306284
-0.460519
-0.306822
-0.461095
-0.460956
-0.306236
-0.460498
-0.460513
-0.306402
-0.460794
-0.460626
-0.688728
-0.592689
-0.688558
-0.688882
-0.592799
-0.688859
-0.592429
-0.688401
-0.688299
-0.688596
-0.592237
-0.688272
-0.592219
-0.688301
-0.688377
-0.68809
-0.591857
-0.688023
-0.591978
-0.688388
-0.688267
-0.591372
-0.687926
-0.687716
-0.591387
-0.688038
-0.68776
-0.687498
-0.590618
-0.687364
-0.590867
-0.687515
-0.687396
-0.687317
-0.590371
-0.68728
-0.590653
-0.68739
-0.687394
-0.687282
-0.59039
-0.687335
-0.742609
-0.750937
-0.751216
-0.742155
-0.750639
-0.750448
-0.742693
-0.751328
-0.751193
-0.750465
-0.742076
-0.750712
-0.750971
-0.742215
-0.750877
-0.742489
-0.751067
-0.751361
-0.750993
-0.742194
-0.751188
-0.742473
-0.751485
-0.751414
-0.742136
-0.751327
-0.751451
-0.742032
-0.751253
-0.751141
-0.742118
-0.751598
-0.751679
-0.751165
-0.741962
-0.751328
-0.751652
-0.742076
-0.751616
-0.742137
-0.751503
-0.751592
-0.710114
-0.617652
-0.617266
-0.618053
-0.710769
-0.618303
-0.709749
-0.617063
-0.617169
-0.618321
-0.710677
-0.618218
-0.710382
-0.617589
-0.618194
-0.618236
-0.710608
-0.61853
-0.618788
-0.711242
-0.619202
-0.61898
-0.711237
-0.619428
-0.711352
-0.61934
-0.619304
-0.619864
-0.711829
-0.620262
-0.711222
-0.619281
-0.619387
-0.620493
-0.712159
-0.620513
-0.711657
-0.619668
-0.620016
-0.620433
-0.712061
-0.620288
-0.299697
-0.479976
-0.300172
-0.479178
-0.299246
-0.299036
-0.300508
-0.480531
-0.300613
-0.479449
-0.299186
-0.299704
-0.480487
-0.300618
-0.300742
-0.480782
-0.300455
-0.301268
-0.301172
-0.481202
-0.301771
-0.481808
-0.301895
-0.302219
-0.302418
-0.48234
-0.303054
-0.481932
-0.302285
-0.302316
-0.30363
-0.483315
-0.303969
-0.4822
-0.302445
-0.302748
-0.483414
-0.30402
-0.303872
-0.482942
-0.303173
-0.303589
0.14034
-0.0867561
0.139873
0.140572
-0.0863487
0.140392
0.139361
-0.0877068
0.139026
-0.0874095
0.139862
0.139051
0.13886
-0.0880284
0.138819
-0.0890791
0.138194
0.137492
-0.0884077
0.138634
0.138227
-0.0898013
0.137148
0.13705
-0.0896198
0.137616
0.13696
0.137057
-0.0899134
0.136931
0.136277
-0.090954
0.135704
-0.0904717
0.136698
0.1363
0.13534
-0.0916373
0.135325
-0.09128
0.135891
0.13553
0.365527
0.567956
0.568153
0.364647
0.567454
0.567035
0.365202
0.568038
0.567506
0.566693
0.36397
0.5666
0.363694
0.566807
0.566032
0.566556
0.363809
0.566503
0.5655
0.362437
0.565236
0.566203
0.363101
0.565813
0.362315
0.565311
0.565396
0.36191
0.565275
0.564806
0.362175
0.565424
0.565262
0.564321
0.360896
0.564107
0.361541
0.56504
0.564696
0.564112
0.36087
0.564389
0.729338
0.804671
0.805179
0.729772
0.805364
0.80525
0.728532
0.80439
0.80413
0.728907
0.804964
0.804268
0.72837
0.80411
0.80423
0.727687
0.803866
0.803447
0.804281
0.72836
0.804245
0.727445
0.803439
0.803722
0.804119
0.727813
0.803831
0.727834
0.803965
0.804195
0.727093
0.80365
0.803373
0.727752
0.804227
0.804124
0.726792
0.803304
0.803449
0.803639
0.727266
0.803985
0.832436
0.833094
0.832219
0.83308
0.832598
0.832356
0.832935
0.832118
0.832978
0.832881
0.832939
0.833629
0.833306
0.833738
0.734223
0.734011
0.73477
0.734502
0.529064
0.733993
0.734141
0.528836
0.7347
0.734821
0.529515
0.734452
0.734791
0.529267
0.734293
0.734453
0.529485
0.735408
0.735144
0.530175
0.734308
0.734628
0.529466
0.73563
0.735779
0.531051
0.735785
0.73514
0.530283
0.735909
0.736066
0.53165
0.736678
0.736308
0.531694
0.736337
0.736613
0.532183
0.736824
0.736835
0.532671
0.532767
0.229189
0.22938
0.229138
0.229228
-0.134659
0.229776
0.229603
-0.134419
0.22951
0.229919
-0.134397
0.229854
0.229831
-0.134088
0.230442
0.231007
-0.133566
0.230174
0.229919
-0.13393
0.232029
0.231558
-0.132423
0.231332
0.230649
-0.133366
0.232443
0.232768
-0.131402
0.232876
0.232122
-0.132048
0.233112
0.233456
-0.130643
0.233812
0.233445
-0.130556
0.233762
0.233894
-0.129958
-0.129772
-0.505043
-0.50498
-0.50484
-0.504923
-0.804399
-0.504898
-0.504598
-0.804334
-0.504672
-0.504634
-0.804299
-0.504293
-0.503793
-0.804007
-0.504453
-0.504512
-0.804238
-0.503334
-0.502788
-0.80343
-0.503813
-0.504181
-0.804158
-0.502382
-0.501947
-0.802771
-0.502562
-0.503212
-0.803674
-0.501638
-0.501253
-0.802179
-0.501831
-0.50127
-0.802693
-0.500984
-0.500709
-0.801631
-0.500704
-0.500823
-0.801712
-0.801337
-0.956109
-0.95614
-0.956142
-0.956155
-0.956115
-0.956129
-0.956295
-0.956235
-0.956074
-0.956088
-0.956404
-0.956438
-0.95599
-0.955927
-0.956274
-0.956424
-0.955781
-0.955659
-0.955715
-0.956053
-0.955485
-0.955302
-0.955081
-0.955388
-0.954967
-0.955108
-0.95493
-0.954868
-0.813264
-0.910828
-0.813242
-0.813257
-0.910871
-0.813299
-0.673233
-0.500268
-0.500258
-0.500517
-0.500607
-0.673433
-0.813399
-0.813492
-0.910933
-0.813337
-0.910868
-0.813302
-0.305449
-0.500417
-0.673261
-0.500312
-0.305278
-0.813339
-0.91094
-0.813388
-0.813482
-0.911086
-0.813603
-0.673413
-0.500481
-0.500339
-0.673247
-0.500285
-0.305242
-0.500282
-0.305174
-0.501192
-0.501381
-0.674014
-0.813861
-0.814019
-0.911258
-0.813735
-0.91107
-0.813613
-0.305766
-0.500764
-0.500975
-0.306161
-0.673661
-0.501134
-0.500902
-0.673958
-0.81384
-0.813708
-0.911283
-0.813999
-0.911506
-0.814152
-0.305731
-0.500718
-0.500602
-0.305387
-0.673628
-0.502175
-0.502367
-0.67485
-0.814489
-0.814649
-0.911654
-0.81435
-0.911449
-0.814201
-0.30669
-0.501618
-0.501912
-0.307218
-0.674409
-0.502029
-0.501775
-0.674716
-0.81445
-0.814293
-0.911733
-0.814606
-0.911931
-0.814738
-0.306146
-0.501339
-0.674323
-0.501539
-0.306659
-0.815021
-0.911885
-0.814956
-0.814888
-0.9118
-0.814797
-0.675513
-0.503001
-0.503098
-0.30778
-0.50259
-0.502831
-0.308182
-0.675211
-0.912091
-0.815107
-0.815052
-0.67539
-0.502826
-0.502627
-0.814968
-0.814855
-0.912054
-0.307163
-0.50224
-0.675072
-0.502433
-0.30765
-0.503387
-0.503396
-0.675769
-0.81508
-0.815067
-0.911866
-0.815092
-0.911899
-0.815074
-0.308682
-0.503322
-0.675671
-0.50321
-0.308514
-0.815126
-0.912033
-0.815138
-0.815137
-0.911902
-0.815106
-0.675728
-0.503285
-0.503183
-0.675608
-0.503076
-0.308359
-0.502974
-0.308045
-0.503479
-0.503437
-0.67577
-0.814997
-0.814961
-0.911697
-0.815051
-0.911764
-0.815071
-0.308803
-0.503413
-0.503456
-0.30884
-0.675791
-0.503417
-0.503371
-0.675764
-0.815028
-0.815064
-0.91175
-0.814993
-0.911635
-0.814972
-0.308703
-0.503354
-0.503333
-0.308559
-0.675761
-0.503455
-0.503406
-0.675726
-0.814919
-0.814934
-0.911585
-0.814948
-0.911592
-0.814966
-0.308871
-0.503421
-0.503447
-0.308831
-0.67574
-0.308755
-0.503423
-0.675722
-0.503392
-0.308822
0.294795
0.294745
0.103211
-0.100195
-0.100233
-0.100171
-0.100224
-0.100633
-0.100478
-0.100356
-0.100286
0.102906
0.294481
0.294358
0.465701
0.294623
0.294537
0.465473
0.103137
-0.10078
-0.100553
0.102961
0.294546
0.294675
-0.100417
-0.100324
0.465777
0.294745
0.103211
0.294689
0.465783
0.29388
0.293677
0.102233
-0.101185
-0.101453
-0.100951
-0.100787
0.464945
0.293997
0.102657
0.294157
0.465253
-0.101014
-0.101242
-0.1015
-0.101805
0.102068
0.293596
0.29388
0.102627
0.294073
0.465122
0.294295
0.465524
0.292939
0.292662
0.101189
-0.102267
-0.102585
-0.101961
-0.101709
0.464615
0.293388
0.293143
0.464149
0.101793
0.292454
0.292723
0.100927
-0.102344
-0.10209
-0.102595
-0.102855
0.464006
0.292948
0.293244
0.464557
0.101531
0.291873
0.29165
0.100107
-0.103321
-0.103536
-0.103071
-0.102846
0.463673
0.292319
0.292058
0.463155
0.100659
0.291664
0.291817
0.100046
-0.103253
-0.10308
-0.103407
-0.10357
0.463472
0.292155
0.100468
0.291939
0.4631
-0.104
-0.1039
-0.103785
-0.103682
0.0994616
0.291182
0.291089
0.462776
0.291405
0.291254
0.462463
0.0997603
-0.103927
-0.103839
0.0995745
0.291271
0.291351
-0.103772
-0.103692
0.46281
0.29148
0.0998091
0.291374
0.462668
0.290895
0.290862
0.0991962
-0.104111
-0.104161
-0.10407
-0.104054
0.46215
0.290877
0.0993401
0.290942
0.462287
-0.103994
-0.104016
-0.104037
-0.104098
0.0993128
0.291017
0.291075
0.0994663
0.291077
0.462434
0.291144
0.462526
0.290857
0.290881
0.0991663
-0.10413
-0.104134
-0.104123
-0.10416
0.462124
0.290781
0.290781
0.46211
0.0992033
0.462201
0.290849
0.290901
0.462282
0.0992674
0.804111