# vtk DataFile Version 3.1
vtk output
ASCII
DATASET POLYDATA
POINTS 2739 float
10.055530 16.891743 21.066384 
26.907176 15.964861 19.797900 
27.281131 27.964743 28.112643 
26.528593 26.022471 8.536945 
18.021324 28.662306 8.346264 
13.687239 32.463516 14.567493 
28.449213 25.690776 28.109013 
24.223965 13.406826 22.406940 
29.401063 20.240849 18.614731 
28.226583 29.800674 15.910994 
25.203233 29.571661 28.475821 
26.368183 24.809351 7.892059 
12.735837 13.563171 24.680422 
12.354850 14.506445 20.964798 
11.660465 32.578770 21.035102 
24.074074 32.957722 18.329995 
11.775016 16.246252 28.472175 
24.589122 32.712744 18.263544 
22.925483 26.005243 6.507607 
25.658211 32.467031 19.575281 
29.449596 22.539038 14.785672 
12.070501 30.514119 28.665493 
25.012489 23.642731 6.749902 
17.622257 33.883806 26.998818 
25.644106 31.192757 25.849516 
21.080810 29.932317 8.054960 
26.522157 22.863240 9.456835 
10.026669 28.916824 18.475545 
21.316110 31.760048 28.259150 
16.485999 33.042205 28.342571 
22.671439 31.402287 10.926993 
14.620609 33.861248 17.334686 
10.886695 19.718029 15.917410 
16.721144 22.455553 9.012021 
12.576467 32.995355 26.585047 
16.364539 28.451213 9.467681 
21.638895 33.081021 26.036661 
23.872867 30.630999 28.353799 
8.168487 19.760152 26.167981 
23.753157 31.687750 27.176151 
24.563068 17.190701 13.591165 
24.589830 17.489063 13.137833 
9.338378 18.200283 26.928171 
10.225386 16.588500 21.315878 
29.031034 28.556634 20.923291 
17.766856 15.002485 14.229686 
15.368980 13.929307 18.283315 
21.796974 14.615033 16.395570 
7.827082 22.511177 25.789101 
15.133107 23.832534 10.094625 
10.197671 28.779765 17.858765 
15.759845 25.064900 9.454280 
8.455329 27.918121 24.900487 
23.763138 21.397035 7.937083 
24.931121 32.934462 20.990289 
15.810159 12.830686 22.674761 
15.333328 34.249282 20.837666 
29.873890 25.656541 17.068429 
20.907452 24.780495 6.476966 
19.199697 12.619885 24.524582 
26.866764 15.301710 25.916944 
26.578030 30.356625 26.014624 
9.893051 24.999066 16.684908 
15.597067 33.323542 14.548373 
26.150678 27.464337 8.944027 
28.996150 26.243715 26.976122 
19.354531 22.242898 7.477204 
27.489421 27.061094 28.364824 
15.506014 22.630730 9.942165 
13.669487 33.624790 17.166231 
7.827990 20.706986 25.785983 
18.276357 34.167060 18.456611 
17.809450 31.507307 10.756544 
13.399138 33.524262 17.518467 
20.530114 27.815045 6.840386 
13.695603 33.517273 26.528061 
15.234493 33.843917 16.615226 
23.125469 16.234077 14.074761 
27.185190 29.957346 13.496226 
29.782805 21.222921 22.002715 
7.810571 21.157429 26.350811 
26.491556 18.472711 28.821167 
20.080465 17.331355 11.330781 
9.113182 29.897609 23.256112 
7.809082 22.060664 26.350658 
21.026251 14.112468 17.117455 
28.985550 26.595908 26.723212 
16.136268 31.234263 11.050406 
20.415605 32.935499 27.200056 
23.645057 23.734466 6.595053 
15.525405 33.789019 16.228288 
26.823565 16.094906 19.149533 
16.169302 30.765784 10.709350 
18.381275 33.542128 27.414419 
19.384962 31.547992 10.772226 
15.727367 30.341695 10.707098 
11.546798 17.221148 28.862691 
23.856964 18.009099 11.829808 
18.255642 33.878837 26.958344 
18.999878 33.254570 27.569286 
19.005121 30.986883 9.996890 
15.314870 30.365369 11.036109 
15.354562 15.106015 15.456878 
19.026207 30.576784 9.532019 
23.702509 17.234119 12.774902 
15.245473 30.833175 11.409434 
23.258023 13.049361 23.472238 
15.624936 31.277980 11.421479 
19.378792 31.202268 10.226468 
18.689681 33.977068 26.619377 
24.157723 17.505096 12.722450 
17.954571 33.372070 27.702882 
19.400915 30.422837 9.190663 
26.397524 15.754946 19.083832 
14.493700 23.406232 10.735794 
11.754439 18.043989 15.805161 
10.395097 22.184693 15.838858 
10.085942 17.580382 27.659056 
15.579958 31.712389 11.825241 
26.455001 20.375174 11.726444 
10.529990 22.602183 15.557000 
27.790699 16.915385 26.624115 
13.151069 25.036280 12.030288 
17.774252 16.600636 12.286394 
16.061082 32.077209 11.920342 
26.207201 27.874910 9.316625 
20.056132 34.135680 21.923780 
11.533407 18.640829 15.654800 
23.631599 32.545537 15.572665 
26.593106 19.848896 12.471921 
28.252487 17.394146 25.921694 
16.070015 27.001545 9.326015 
28.106193 17.471937 26.614070 
10.159537 17.909740 27.985165 
11.986927 16.454512 28.741496 
23.331505 32.751251 16.006892 
26.756297 19.754439 12.805948 
11.648485 18.867726 15.342042 
10.009443 18.811721 28.256823 
7.987244 20.000714 25.834715 
13.754559 13.376897 22.557793 
28.154523 17.820046 26.958502 
16.069295 32.393991 12.421161 
17.150958 16.900135 12.121443 
11.285709 14.885521 25.475516 
26.236304 14.530796 23.962309 
14.788511 13.083985 22.294045 
25.994355 19.855041 11.698100 
23.700712 32.710246 16.586480 
13.363327 24.631739 11.800222 
9.843761 18.415293 27.906877 
17.710559 33.351780 14.721324 
26.834532 20.407329 12.194779 
27.181143 16.171259 20.069222 
27.936993 16.837594 25.931739 
28.802198 28.510059 23.186814 
14.424026 13.141223 22.632649 
10.982674 15.062197 24.886401 
11.182908 14.792889 24.530620 
15.175129 32.101695 12.676180 
15.635950 32.444654 12.787860 
14.784616 32.090655 13.105502 
23.506131 32.899555 17.070184 
28.559299 28.587237 24.438117 
16.685791 16.798448 12.425676 
15.127350 31.686211 12.214380 
14.692830 23.815776 10.513727 
28.709561 28.258972 24.805549 
15.840766 32.743712 13.386968 
23.758284 20.427893 9.048406 
10.995855 15.030829 23.522055 
21.684068 27.788217 6.789007 
27.088205 17.019080 27.859844 
24.380049 22.919408 7.081972 
20.617213 23.166680 6.769322 
10.271366 30.597817 27.456169 
18.810064 13.305457 19.003621 
9.325232 29.126039 27.393821 
20.177921 14.217438 16.392931 
25.011516 14.178383 26.982622 
17.992427 22.096628 8.249256 
16.460175 33.892883 16.560834 
23.794214 23.124912 6.815873 
25.387847 30.609027 27.411086 
8.815330 25.689459 27.598257 
28.126361 18.497239 27.614980 
29.281070 28.103701 15.865510 
8.911530 24.200436 18.360603 
21.296595 30.710287 9.366635 
20.966424 22.876080 6.807590 
21.524497 26.766095 6.570007 
17.450740 33.863902 16.600658 
17.828514 17.473873 11.377229 
13.964862 31.712373 13.544644 
28.113385 29.596027 22.820331 
21.970433 29.904970 8.529130 
27.785846 17.658259 27.522071 
10.004332 19.296375 17.524150 
25.909228 31.257586 14.783365 
15.654495 34.112806 25.813616 
24.229893 32.356274 25.288986 
14.055870 13.706850 20.470734 
14.730793 14.462065 17.442155 
23.974970 30.227687 10.015782 
24.907280 31.238946 12.866342 
23.401239 20.875662 8.373025 
26.289073 31.156724 15.256658 
22.326453 13.246023 20.531508 
22.820324 15.561313 15.122624 
25.464757 15.407374 28.123162 
20.023155 22.901359 6.963579 
26.338596 18.384428 13.934138 
10.254902 18.391409 17.901860 
12.751443 33.303354 20.809084 
11.471627 16.475896 18.089767 
21.564825 19.115681 9.615411 
8.685912 22.592838 27.797739 
21.098714 12.704183 24.888553 
14.579436 13.462624 20.602801 
8.501138 25.668753 26.999436 
22.178222 28.572167 7.147201 
12.061007 32.686833 19.758518 
27.432462 15.958689 22.483497 
26.920213 17.570417 28.315778 
16.989965 13.096746 20.096694 
15.391353 14.081557 28.377278 
18.078110 21.753660 8.350359 
25.487276 14.999780 27.763684 
17.698390 12.781408 21.552187 
27.206009 15.754331 22.062720 
14.229828 21.089916 11.384356 
17.407799 22.752503 8.418170 
23.454064 26.875967 6.885919 
17.690787 22.500049 8.283496 
22.276392 17.019296 12.259371 
12.772132 20.525374 13.050121 
29.963702 23.759973 22.348095 
15.311632 34.127062 25.448235 
26.490200 21.696145 10.467401 
21.630142 20.023662 8.754408 
11.904882 32.449841 19.281964 
19.891713 27.050947 6.829844 
26.719049 14.986807 24.909314 
29.190961 27.921963 22.417219 
11.346768 32.126452 20.335019 
8.836975 29.274327 25.227978 
25.697304 22.920246 8.204713 
20.291748 12.996171 20.456480 
21.731534 30.508440 9.182630 
19.963723 12.934643 26.655039 
11.158481 14.779119 23.953953 
10.409901 15.793868 23.732779 
26.948186 15.224412 24.534601 
28.207843 19.945867 28.386748 
19.011688 26.692795 7.096916 
24.995826 29.875266 10.281337 
27.178216 18.938935 14.484586 
16.975438 13.276787 19.380276 
18.826953 27.114429 7.275098 
26.897186 30.548954 14.557744 
26.089005 22.078279 9.551967 
27.766591 30.014563 22.833398 
27.018547 30.588881 23.699881 
18.438212 34.154890 25.929427 
27.264154 30.045595 24.910202 
21.924437 23.807409 6.510022 
19.981898 13.545120 27.865688 
20.907557 22.270757 7.071241 
24.280682 17.923025 12.248051 
27.258892 22.357413 10.973908 
27.854624 25.282555 10.362014 
10.659795 17.867641 28.499948 
8.160777 23.744149 26.885247 
12.192503 32.601640 18.639787 
22.653318 25.043585 6.394711 
25.076440 32.671185 19.025678 
26.854909 30.835582 23.308109 
21.245621 19.778228 8.943180 
24.580827 13.499077 24.881777 
23.256441 20.005194 9.235404 
25.374314 32.221017 17.852427 
13.660440 33.795770 21.223655 
18.075854 12.956040 20.437977 
21.084820 13.465528 19.071563 
25.621544 25.974452 7.387553 
13.371662 13.339131 25.055113 
15.684992 14.330611 28.573037 
10.269896 17.963402 18.450967 
29.189383 26.734432 26.233879 
29.841443 24.580504 15.928158 
10.674625 17.498987 18.284203 
19.925915 13.060428 20.082645 
9.898411 17.456298 20.400706 
9.006762 28.873478 26.888978 
26.526773 30.667987 14.090446 
17.172068 30.897879 10.399406 
25.351756 22.898849 7.763518 
18.461001 22.540953 7.802698 
14.310632 31.095915 12.665286 
28.349958 24.857689 11.183051 
24.939092 15.542677 28.432407 
25.791125 14.487260 21.399015 
9.397302 28.712486 27.733443 
26.472954 22.130129 10.037022 
13.204328 14.535495 19.284929 
24.541013 26.773555 7.270380 
17.841136 33.619409 15.758462 
28.393728 19.430149 27.911165 
24.698460 31.277363 27.006224 
22.911690 16.015869 14.315002 
12.356947 32.340824 17.114503 
9.039276 26.073732 27.862382 
8.705202 23.386634 27.730145 
13.351897 33.639661 20.820959 
22.201143 28.091212 6.899228 
20.156817 32.496025 12.542597 
10.356299 30.174659 27.881395 
14.833721 32.486479 13.572088 
14.336988 31.661619 13.094590 
14.609649 17.540213 12.987058 
8.757199 28.217482 26.650258 
19.993253 14.005360 28.331461 
[...]
POINT_DATA 2739 
VECTORS    Normal    double 
-0.610411 -0.375644 -0.115665 
0.486504 -0.489068 -0.140897 
0.308953 0.220648 0.469295 
0.445655 0.102955 -0.286240 
-0.350313 0.303889 -0.507190 
-0.447793 0.474412 -0.539794 
0.388563 0.089485 0.492712 
0.232104 -0.683238 -0.051854 
0.749129 -0.251055 -0.079508 
0.525585 0.510009 -0.086098 
0.288168 0.305435 0.575099 
0.518023 0.049429 -0.234644 
-0.281635 -0.580129 0.061549 
-0.403289 -0.613096 -0.165299 
-0.461484 0.569794 -0.093722 
0.290356 0.680820 -0.158426 
-0.408044 -0.365945 0.521900 
0.379778 0.825359 -0.200181 
0.098992 0.187857 -0.913316 
0.413077 0.504435 -0.056018 
0.725050 -0.195379 -0.229356 
-0.368741 0.341051 1.047592 
0.191770 -0.510466 -0.618263 
0.003403 0.587605 0.322084 
0.399672 0.517578 0.157788 
0.488743 0.740576 -0.523171 
0.674580 -0.359867 -0.446007 
-0.613682 0.262511 -0.206710 
0.123553 0.349602 0.535980 
-0.068790 0.436427 0.429818 
0.104260 0.529554 -0.392111 
-0.250073 1.093192 -0.139507 
-1.008861 -0.332036 -0.641484 
-0.365968 -0.110995 -0.630096 
-0.435073 0.872691 0.343462 
-0.459578 0.172715 -0.488632 
0.304826 1.045983 0.322223 
0.152716 0.382518 0.563224 
-0.785978 -0.651783 0.114094 
0.442956 0.896777 0.560052 
0.433179 -0.712941 -0.417797 
0.394668 -0.625605 -0.414301 
-0.790893 -0.572540 0.375414 
-1.121442 -0.820902 -0.159603 
0.688990 0.386618 0.073006 
-0.148970 -0.802808 -0.705040 
-0.296460 -1.063452 -0.350338 
0.258397 -0.796248 -0.371877 
-1.905483 0.078615 0.001424 
-0.774692 -0.078015 -0.830550 
-0.827204 0.313936 -0.320871 
-0.754970 -0.015782 -0.811914 
-1.197102 0.283260 0.005627 
0.184922 -0.519064 -0.430117 
0.392710 1.244422 0.286272 
-0.193382 -1.241302 -0.114999 
-0.186162 1.249362 -0.028752 
1.280486 0.112634 -0.040989 
-0.152060 -0.019981 -0.972693 
0.005843 -1.272166 0.057008 
0.767657 -0.674550 0.153597 
0.686210 0.754838 0.258122 
-1.022023 0.091421 -0.530107 
0.063715 1.050080 -0.398060 
0.615442 0.487566 -0.592802 
0.850797 0.335168 0.333701 
-0.324668 -0.471900 -0.810117 
0.482103 0.324657 0.825461 
-0.748554 -0.202775 -0.853642 
-0.205760 1.075486 -0.103936 
-1.904499 -0.075070 0.009904 
0.084099 1.045583 -0.182749 
-0.119277 0.622223 -0.817378 
-0.570340 1.096287 0.128088 
-0.162416 0.159729 -1.019773 
-0.332008 0.885303 0.294867 
-0.111389 1.079039 -0.221119 
0.353636 -0.931315 -0.502392 
0.663468 0.774852 -0.319793 
1.282775 -0.192165 -0.006021 
-2.655431 -0.117809 0.003289 
0.326285 -0.210596 1.019417 
0.048175 -0.798286 -0.721686 
-1.033693 0.276513 -0.105266 
-2.663530 0.109046 0.002673 
0.197419 -0.952694 -0.380067 
0.903118 0.259963 0.421548 
-0.364586 0.610590 -0.675073 
0.247189 0.908568 0.457353 
0.165549 -0.206286 -0.835118 
-0.093487 1.095795 -0.241474 
0.629702 -0.670881 -0.235700 
-0.328900 0.377646 -0.749552 
0.046068 0.653670 0.582156 
-0.052834 0.935449 -0.570688 
-0.372462 0.361329 -0.775813 
-0.660595 -0.518551 1.072885 
0.433517 -0.779933 -0.665727 
0.057218 0.792592 0.457133 
0.242010 0.655711 0.698403 
-0.161719 0.820143 -0.696518 
-0.612329 0.356485 -0.510520 
-0.464162 -0.912905 -0.548407 
-0.164411 0.787043 -0.736099 
0.328897 -0.729592 -0.468827 
-0.598717 0.308998 -0.548503 
0.325139 -1.161439 -0.053344 
-0.459054 0.624633 -0.605410 
-0.057424 0.999064 -0.653531 
0.216510 0.936604 0.394483 
0.371465 -0.621082 -0.430795 
0.158427 0.746478 0.545771 
-0.341502 0.983275 -0.617636 
0.579264 -0.750595 -0.248681 
-0.771003 -0.059501 -0.835156 
-0.734331 -0.464920 -0.529741 
-0.965805 -0.082403 -0.587851 
-0.699769 -0.426141 0.381404 
-0.476033 0.543818 -0.755898 
0.691216 -0.539622 -0.562089 
-0.984393 -0.086389 -0.595495 
0.803672 -0.485242 0.317635 
-0.816637 0.014449 -0.766520 
-0.122675 -0.761712 -0.715171 
-0.191769 0.698891 -0.632824 
0.639087 0.470966 -0.653737 
0.190795 1.229660 0.085882 
-0.524772 -0.249464 -0.455031 
0.461014 1.044245 -0.217458 
0.641817 -0.509864 -0.419161 
0.936393 -0.485457 0.158815 
-0.685544 0.158547 -0.748805 
0.829529 -0.429118 0.317066 
-0.728939 -0.237470 0.611245 
-0.630970 -0.551431 1.005017 
0.438834 1.102830 -0.177830 
0.583938 -0.462588 -0.454681 
-1.004688 -0.539940 -0.680418 
-0.580863 -0.222219 0.775808 
-1.094272 -0.600095 0.004813 
-0.442785 -1.088208 -0.166308 
0.920309 -0.475792 0.351971 
-0.186658 0.867012 -0.351447 
-0.178042 -0.541423 -0.514599 
-0.589661 -0.513475 0.132313 
0.489247 -0.610380 -0.030124 
-0.346851 -1.172367 -0.139041 
0.697402 -0.626700 -0.602954 
0.314233 0.807837 -0.166708 
-0.810825 0.007495 -0.773556 
-0.674810 -0.454109 0.584849 
0.080588 1.353193 -0.396678 
0.650777 -0.482911 -0.455234 
0.952406 -0.910720 -0.247203 
0.905526 -0.552919 0.160146 
1.046083 0.644387 0.114862 
-0.275762 -1.054879 -0.154661 
-0.790033 -0.691778 0.215934 
-0.659186 -0.758715 0.066394 
-0.711808 0.631397 -0.399978 
-0.184322 0.806555 -0.318179 
-0.482121 0.658789 -0.652848 
0.459595 1.116152 -0.275001 
0.823082 0.533838 0.163946 
-0.364128 -0.930221 -0.806255 
-0.630451 0.481145 -0.462105 
-0.777822 -0.077650 -0.806630 
1.101690 0.755552 0.200860 
-0.219332 0.914367 -0.402859 
0.333637 -0.683062 -0.657898 
-0.925444 -0.751778 -0.247525 
0.082932 0.185550 -1.051329 
0.618372 -0.552864 0.680764 
0.325434 -0.373700 -0.758450 
-0.150836 -0.231801 -0.925848 
-0.638639 0.470772 0.504911 
0.030495 -1.210180 -0.333766 
-0.673838 0.253711 0.414910 
0.191598 -1.051314 -0.345996 
0.513198 -0.779599 0.332038 
-0.432132 -0.374793 -0.741258 
0.003355 1.049905 -0.226096 
0.125079 -0.297449 -0.751706 
0.352301 0.535581 0.383276 
-0.915831 0.088600 0.667714 
0.675282 -0.314922 0.516387 
1.091505 0.426404 -0.101390 
-0.785667 0.215501 -0.431122 
0.143448 1.096471 -0.421841 
-0.054277 -0.230933 -0.716337 
0.010044 0.164536 -0.932163 
0.056988 0.916897 -0.209644 
-0.168813 -0.714771 -0.758390 
-0.589720 0.451795 -0.480144 
0.807446 0.603809 0.137118 
0.166221 0.611964 -0.464466 
0.625343 -0.335343 0.426309 
-0.899952 -0.403538 -0.362668 
0.464717 0.807985 -0.206843 
-0.126312 1.142386 0.174643 
0.473102 0.654471 0.294798 
-0.433316 -0.894800 -0.262053 
-0.337212 -0.790771 -0.298753 
0.442725 0.934693 -0.621982 
0.405756 0.727956 -0.266415 
0.237433 -0.646074 -0.612733 
0.494317 0.848087 -0.209916 
0.183379 -0.882268 -0.195299 
0.327647 -0.921582 -0.446774 
0.363671 -0.397155 0.651721 
-0.209780 -0.230948 -0.808994 
0.612907 -0.639835 -0.427875 
-0.661498 -0.451928 -0.375691 
-0.693568 1.039944 -0.070607 
-0.550147 -0.433804 -0.399648 
0.110183 -0.726350 -0.713733 
-0.832627 0.052610 0.828979 
0.099514 -1.234023 0.049236 
-0.298102 -0.946346 -0.243066 
-1.091435 0.092534 0.379203 
0.136570 0.572184 -0.572074 
-0.794344 0.885029 -0.140333 
0.927555 -0.756863 -0.100197 
0.532965 -0.326910 0.807314 
-0.121693 -1.140695 -0.252339 
-0.036847 -0.665597 0.731431 
-0.447775 -0.283849 -0.747317 
0.367807 -0.551741 0.470008 
-0.041960 -1.258531 -0.183280 
0.902538 -0.787491 -0.134675 
-0.737813 -0.206772 -0.785048 
-0.759761 -0.333169 -1.043541 
0.234845 0.250106 -0.727641 
-0.412368 -0.150150 -0.513429 
0.203310 -0.677664 -0.457335 
-0.662794 -0.220603 -0.598178 
1.351938 -0.003644 0.017783 
-0.133746 1.102807 0.156987 
0.716861 -0.494600 -0.543302 
0.063826 -0.717233 -0.756299 
-0.565081 0.579863 -0.142797 
-0.222435 0.163237 -0.931589 
0.722694 -0.661550 0.021239 
1.065874 0.470762 0.107289 
-0.707051 0.623043 -0.156393 
-0.874394 0.295359 0.024747 
0.715507 -0.497959 -0.504078 
0.065183 -1.202365 -0.286270 
0.374277 0.990965 -0.644234 
0.029751 -1.121885 0.382349 
-0.490440 -0.563892 0.013885 
-0.970863 -0.487633 -0.079946 
0.809353 -0.742719 0.025164 
0.737920 -0.240348 0.760792 
-0.349064 0.072417 -0.667777 
0.366405 0.634135 -0.413227 
0.867712 -0.700579 -0.508447 
-0.120267 -1.105701 -0.307291 
-0.507647 0.186455 -0.833014 
0.717566 0.955007 -0.288010 
0.685253 -0.475819 -0.477855 
0.685349 0.624698 0.132036 
0.811275 0.873109 0.181363 
0.161111 1.295726 0.043226 
0.811549 0.775986 0.212996 
-0.030906 -0.168957 -0.973216 
0.023528 -0.951608 0.666724 
-0.055016 -0.348523 -0.638452 
0.437292 -0.696502 -0.520331 
0.927130 -0.507392 -0.599077 
0.645311 0.083821 -0.429927 
-0.553026 -0.213159 0.597696 
-1.149087 0.428060 0.422195 
-0.847361 0.858496 -0.149811 
0.028435 -0.006759 -1.068853 
0.409237 0.889976 -0.239742 
0.805271 0.813855 0.205720 
0.086225 -0.676369 -0.749954 
0.433897 -1.026533 0.015156 
0.270529 -0.563413 -0.538302 
0.474983 0.885029 -0.218545 
-0.470985 1.117906 -0.040309 
-0.044056 -1.209844 -0.264239 
0.210460 -1.199474 -0.366500 
0.596915 0.481312 -0.660745 
-0.259218 -0.728723 0.073638 
0.062304 -0.690560 0.955752 
-0.844103 -0.631278 -0.427514 
0.577356 0.157348 0.313282 
1.276920 0.012140 -0.119614 
-1.003688 -0.657905 -0.466798 
0.080832 -1.200684 -0.269674 
-0.824826 -0.481945 -0.232904 
-0.927328 0.271694 0.332304 
0.520964 0.757716 -0.257460 
-0.145204 0.568748 -0.737760 
0.548509 -0.402016 -0.442265 
-0.484531 -0.351140 -0.942906 
-0.753232 0.613722 -0.780729 
1.022450 0.019885 -0.480362 
0.325786 -0.469660 0.899496 
0.574277 -0.653585 -0.111268 
-0.650830 0.215529 0.437581 
0.716758 -0.509444 -0.526600 
-0.403913 -0.691799 -0.259587 
0.381329 0.513119 -0.916237 
0.090608 0.697606 -0.216015 
0.829079 -0.443163 0.592872 
0.432860 0.833643 0.460387 
0.252019 -0.604840 -0.353941 
-1.021702 0.648729 -0.192815 
-0.925679 0.074693 0.656094 
-0.813226 0.126823 0.808517 
-0.511506 1.116717 -0.073186 
0.111895 0.175455 -0.855042 
0.117494 1.052290 -0.448475 
-0.638590 0.384772 0.601581 
-0.389774 0.663181 -0.376874 
-0.610762 0.513860 -0.621373 
-0.457497 -0.495245 -0.587199 
-0.944156 0.193168 0.346757 
0.016477 -0.658035 0.922825 
0.013539 1.210801 -0.285244 
0.685081 -0.271651 0.342365 
-0.356232 -0.841833 -0.321374 
0.188520 -0.611142 -0.480382 
0.454940 0.684501 0.296286 
-0.660147 0.140228 -0.663708 
0.048614 1.003372 -0.613911 
0.090380 -0.336613 -0.783605 
-0.043812 -1.234517 -0.177138 
0.703955 -0.314510 -0.433038 
0.460978 -0.625876 -0.435958 
1.018744 -0.364439 0.358233 
1.087580 0.024112 0.350660 
0.332198 -0.660739 -0.543037 
-0.525405 0.813868 0.346306 
-0.559728 -0.001083 0.989898 
-0.157204 -1.162813 -0.351321 
1.242427 -0.066904 0.070117 
0.717922 -0.920440 -0.445813 
-0.747964 -0.200422 -0.782956 
-0.460205 -0.402689 -0.548188 
0.624609 -0.977254 -0.749540 
0.945838 0.709284 0.158631 
0.887443 0.688176 0.189409 
0.105462 -1.210432 0.040345 
0.663820 0.080346 -0.361226 
0.004681 -1.137268 0.387173 
-0.560130 0.292359 -0.446973 
-0.437717 0.053518 -0.829119 
-0.442650 -0.577486 -0.763048 
0.676605 -0.239719 -0.497745 
-0.853116 0.500593 -0.339615 
0.840317 0.786066 0.185551 
0.023100 -0.940158 0.658907 
0.599487 -0.486396 -0.348885 
-1.568716 0.233937 -0.414790 
-0.392778 0.796799 0.316336 
-1.127302 0.110125 0.374010 
0.053927 0.903522 -0.251875 
-0.750297 -0.118785 -0.767471 
-0.860074 0.499469 0.415569 
0.083600 0.284258 -1.167146 
-0.633311 0.062352 0.913503 
-0.223148 0.073766 -0.744970 
-0.080640 1.456076 0.052110 
-0.741913 -0.008561 0.847991 
-0.457506 -0.558308 1.097058 
0.987288 -0.524335 0.704869 
-0.494940 -0.659037 -0.265728 
-0.149895 -0.834717 -0.248045 
0.019610 -0.680989 0.960079 
0.004188 -1.134138 0.386667 
0.464852 0.746697 0.048696 
-0.613260 -0.335561 -0.458961 
0.374489 0.430916 -0.507154 
1.165853 -0.051946 0.168429 
1.092915 -0.515920 -0.059198 
0.485463 -0.821037 -0.343332 
-1.050754 0.090152 -0.739797 
0.903353 -0.510113 -0.623756 
0.447743 -0.290160 0.692808 
0.090537 1.518089 -0.351035 
0.125135 -1.250012 -0.030696 
-0.924924 0.461726 -0.160621 
-0.412420 -0.454904 -0.551046 
1.258271 -0.073848 0.076754 
-0.276797 0.055171 -0.927719 
-0.604863 -0.482548 -0.532171 
0.821135 0.117464 -0.445113 
-0.484809 0.775719 0.313325 
0.237015 0.224949 -0.948089 
0.257461 -0.756537 -0.376062 
-0.874847 0.047018 0.736135 
0.443654 0.713520 0.304127 
-0.834674 0.411880 -0.335736 
1.187069 -0.062693 0.161933 
-0.945012 -0.620937 0.044701 
0.611086 0.615474 0.168226 
-0.361681 -0.179824 -0.672572 
0.422834 0.827222 -0.239146 
-0.379806 -0.636717 -0.163797 
0.244003 0.270194 -1.105220 
0.473898 0.802111 -0.243842 
0.083571 0.883910 -0.188160 
-0.319825 -0.908252 -0.070767 
0.330225 0.577513 0.470424 
-0.971215 -0.229810 -0.755105 
0.109940 -1.254334 -0.046501 
-0.557346 -0.470557 -0.641089 
-0.792504 0.386886 -0.424087 
-0.983147 0.424102 -0.568478 
0.266668 -1.011371 -0.673331 
0.535744 -0.396355 0.470568 
-0.112316 0.217845 -0.723484 
0.819654 0.654555 0.191988 
-0.034533 -0.333173 -0.942962 
-1.044377 -0.244461 -0.332218 
0.630394 0.414202 -0.501701 
0.154762 1.452615 -0.098077 
0.792567 -0.387707 -0.304187 
0.084764 -0.694526 -0.723397 
-0.352984 -0.507726 0.822758 
-0.040705 -1.252859 -0.097869 
-0.220465 -0.482605 -0.645298 
-0.041968 -0.160842 -0.994998 
-0.965234 0.481738 -0.521172 
-0.711517 -0.999842 -0.447621 
0.190992 0.625776 -0.584992 
-0.480381 0.449499 0.414260 
-0.637173 0.755842 -0.158461 
0.185965 0.151820 -0.930286 
1.226213 -0.064872 -0.117313 
0.225255 -1.221450 -0.486397 
-0.143244 -0.751100 -0.746255 
0.138467 1.205310 0.048586 
0.194933 -0.457008 -0.356156 
-0.682226 -0.078900 0.785085 
-0.802576 -0.331029 -0.707259 
0.165094 0.634849 0.553309 
-0.557622 0.417778 0.194447 
0.268580 -0.428823 0.790840 
-0.628358 -0.590696 0.632990 
-0.857479 -0.461167 -0.237130 
-0.023054 0.137443 -1.058182 
-0.553788 -0.400428 -0.863144 
0.332961 1.019110 0.521768 
-0.645691 0.053660 0.953668 
0.992619 0.131025 -0.551789 
-0.693559 0.238221 0.129477 
-0.664441 0.224333 0.194847 
0.170526 -0.923429 -0.301556 
0.120987 0.784695 -0.531425 
0.066330 0.445436 -0.094956 
-0.456695 0.503418 -0.966833 
0.311880 0.252754 -0.513803 
1.126076 0.497516 0.109797 
-0.518319 1.131951 -0.082828 
1.081732 -0.047520 0.346424 
0.743129 -0.180971 -0.415670 
0.120258 1.290369 -0.072099 
-0.855231 0.118777 0.717166 
0.026522 -1.122231 0.378779 
1.094314 -0.537850 -0.076329 
1.143103 -0.060972 -0.173104 
-0.476715 0.068364 -0.923946 
-0.306509 -1.118338 -0.398779 
0.680320 -0.731656 -0.509901 
-0.037220 1.115491 0.171414 
0.415689 0.902649 -0.832497 
1.172262 0.021599 0.171405 
0.019005 -1.170896 -0.334266 
-0.901878 -0.596743 0.045794 
1.051946 -0.463981 0.059597 
-0.783917 -0.106714 -0.428499 
-0.839920 0.934026 0.140887 
-0.562120 0.267163 -0.551666 
-0.191242 -0.339886 -0.661196 
0.325215 0.552393 0.382167 
0.181903 0.310309 -0.737409 
0.560988 -0.355474 0.399168 
0.003983 -0.951496 0.665543 
-1.063959 0.264797 0.341443 
-0.634829 -1.155157 -0.377122 
-0.327379 -0.854677 -0.066113 
-0.908811 0.407898 -0.679893 
-0.700102 0.422507 -0.295646 
0.495030 0.276469 0.328765 
-0.010067 0.893701 -0.200445 
-0.776451 -0.110193 -0.495813 
0.005057 -0.964215 0.675862 
-0.791025 0.301537 -0.523845 
0.369824 0.944288 -0.044257 
-1.107679 -0.628534 -0.288377 
-0.848619 0.390334 -0.372112 
0.375649 -0.387714 0.653518 
-0.306109 0.616387 0.499389 
1.241966 0.025474 -0.102305 
1.061637 -0.470766 0.062223 
-0.509360 -0.818660 -0.255765 
0.097907 1.016088 -0.454290 
-0.481517 0.526994 0.422846 
0.548024 -0.548069 -0.440652 
0.640483 -0.741244 -0.325202 
0.426302 -0.629342 -0.473898 
-0.163370 -0.603335 -0.776323 
-0.698230 0.322216 -0.509393 
-0.780793 -0.326430 -0.982800 
-1.037060 -0.797446 -0.274268 
0.086526 0.728201 -0.399763 
0.086038 0.783006 -0.333953 
0.443191 0.511187 -0.515600 
-0.005937 -0.295926 -0.912884 
0.259804 0.769567 0.611697 
0.103625 -1.135274 -0.325287 
-0.371141 0.578780 0.397302 
-0.983794 0.221449 -0.290506 
-0.950702 -0.332623 -0.363780 
0.129654 1.346525 0.031678 
1.103905 -0.513553 -0.204658 
0.146381 -0.533413 -0.549794 
1.336665 -0.011934 0.010059 
0.499004 0.972648 -0.279109 
1.087904 0.399166 -0.076336 
0.673631 -0.308489 0.514169 
0.745224 0.700399 0.186425 
0.082635 1.381020 -0.075758 
0.042241 1.294073 -0.034465 
0.058829 -0.635736 -0.710840 
-0.754199 -0.457719 -0.206423 
1.293579 -0.034782 -0.154203 
0.383656 -0.853337 0.751034 
0.781096 -0.123699 -0.707035 
0.055842 0.994055 -0.232352 
0.284023 -0.815356 -0.447237 
0.577673 0.791017 -0.212661 
0.312137 0.961527 0.494362 
0.748492 -0.747585 -0.235406 
0.438877 -1.014620 0.023646 
-0.426465 -0.938531 -0.194166 
0.652219 -0.545790 -0.414276 
0.044250 0.152395 -1.144513 
-0.777941 0.402116 0.022756 
0.188917 0.916129 -0.040913 
0.877456 -0.371641 0.264173 
-0.819880 -0.215846 -0.271144 
1.195945 0.016695 0.179931 
-0.645672 -0.958381 -0.490429 
-0.614607 -0.891427 -0.366324 
-0.595723 -0.020396 1.006050 
0.031391 -1.211791 0.179486 
-0.837960 0.384273 -0.835914 
-0.994416 -0.345262 -0.363545 
-0.246955 -0.194305 -0.810479 
-0.418360 -0.703425 -0.287353 
-0.640565 -1.150098 -0.326164 
0.419886 -0.995084 -0.355340 
0.397398 -0.637730 0.526448 
-0.723938 0.289634 -0.511983 
-0.757594 0.131991 -0.735249 
-0.776179 -0.252063 -0.653046 
1.014546 -0.445894 0.167740 
-0.581715 0.321306 0.111763 
-0.748420 -0.473976 -0.143272 
0.362847 0.689027 -0.481702 
-0.863591 -0.312705 -0.417996 
-0.517219 -0.910518 -0.276158 
0.109387 1.365001 -0.316508 
0.678248 0.811331 0.244612 
0.143041 -1.034915 -0.365524 
0.671877 0.810744 -0.213085 
0.421201 -0.817867 -0.395689 
0.416650 0.843264 -0.197248 
0.669847 -0.399760 -0.441768 
0.297838 -0.738767 -0.377110 
-0.920939 0.027546 0.750435 
0.334101 -0.715340 0.635684 
-0.810525 -0.122279 -0.841754 
0.537508 0.317042 -0.737504 
0.801203 0.120123 -0.535543 
0.352495 0.785286 -0.168054 
0.458563 0.776664 -0.236441 
-0.456632 -0.503530 -0.387612 
-0.788437 -0.214974 -0.938979 
0.858382 -1.059859 -0.523036 
0.723261 0.702392 -0.018652 
0.124807 -0.844523 0.585642 
0.355523 1.301000 -0.092087 
-0.805288 0.000572 -0.794450 
-0.802850 0.591425 -0.384792 
0.705675 -0.867169 -0.110191 
0.970337 -0.649728 -0.045196 
0.913752 -0.685383 -0.083044 
-0.248377 -1.087251 -0.277237 
-0.659343 -0.401042 -0.638819 
-0.714196 -0.935705 -0.421561 
-0.692255 0.926290 -0.110045 
-1.006519 0.120666 0.314905 
0.583228 0.847207 -0.322182 
-1.121756 0.244116 -0.436380 
0.847341 -0.821495 -0.511989 
-0.402759 1.071055 0.057848 
0.704796 -0.495103 -0.368019 
0.866146 -0.518004 -0.321263 
-1.180053 0.282803 0.140513 
-1.051814 0.311159 0.108666 
0.605687 -0.622477 -0.628460 
1.131990 0.080319 -0.185601 
-0.907196 -0.512359 -0.695860 
-0.676616 0.369737 -0.670978 
1.365164 -0.035582 -0.013675 
0.920287 -0.307512 -0.339951 
0.741874 0.802386 -0.104281 
0.564170 -0.722964 -0.568665 
0.855522 -0.375306 -0.228265 
0.226133 0.674396 0.309382 
-0.538817 -0.420989 -0.952844 
1.280688 -0.192588 -0.027499 
0.593445 0.555680 0.130574 
-1.306796 0.025408 -0.093812 
0.044618 -1.278652 -0.023875 
0.005915 -1.288838 -0.023953 
-1.317511 -0.086195 -0.105356 
-1.321831 -0.046381 -0.142999 
-0.422901 -0.644528 -0.430388 
-0.430814 -0.849936 -0.493753 
0.312746 -1.101357 0.024483 
-1.199143 0.170890 0.010507 
0.381720 -0.785237 -0.336013 
1.325773 0.080032 0.018711 
-1.292813 -0.075480 -0.165864 
-0.339466 -0.684174 -0.632748 
-0.497791 -0.306169 -0.822859 
-0.615947 -0.547899 0.244511 
0.010405 1.176013 0.437830 
0.029490 -1.163360 -0.332119 
0.898185 0.452343 -0.463592 
-0.279984 1.136577 0.061504 
1.347839 -0.126951 -0.014602 
-0.856116 -0.626787 0.234750 
1.325699 0.140744 0.011946 
1.326812 0.323006 0.033738 
1.355499 0.046907 0.011146 
0.082661 0.935522 -0.689258 
-1.278968 0.268880 -0.408797 
-0.870171 -0.562308 0.391105 
-0.820710 -0.548390 0.155814 
-0.824857 -0.044743 -0.745398 
-1.206071 0.342722 0.138211 
0.576288 0.805286 0.201808 
0.886444 -0.335295 -0.667511 
0.750416 -0.398723 -0.507132 
0.871057 -0.404153 -0.544590 
-0.661222 0.239273 -1.028567 
0.194218 -0.901912 -0.355869 
-0.639738 0.282274 -0.521400 
-0.935568 0.107784 0.681362 
-0.369348 0.737548 0.677447 
-0.298738 0.774553 0.603881 
0.560622 0.928655 -0.331365 
-0.806973 -0.098152 -0.675155 
0.699547 0.896988 0.214616 
-0.134321 -0.729100 -0.784001 
-0.000640 -0.210170 -1.028787 
0.707168 0.837161 0.212301 
-0.109211 -0.822212 -0.674526 
-1.041175 0.213899 -0.788890 
-0.419112 1.111076 0.008059 
-0.193906 -0.628617 -1.032096 
0.034059 -0.585130 -0.807072 
0.297487 1.049802 0.315047 