# vtk DataFile Version 3.1
vtk output
ASCII
DATASET POLYDATA
POINTS 4260 FLOAT
2.83277e-16          -1    -3.14159
-0.104528 -0.994522  -3.14159
 0.104528 -0.994522  -3.14159
-0.207912 -0.978148  -3.14159
 0.207912 -0.978148  -3.14159
-0.309017 -0.951057  -3.14159
 0.309017 -0.951057  -3.14159
-0.406737 -0.913545  -3.14159
 0.406737 -0.913545  -3.14159
     -0.5 -0.866025  -3.14159
      0.5 -0.866025  -3.14159
-0.587785 -0.809017  -3.14159
 0.587785 -0.809017  -3.14159
-0.669131 -0.743145  -3.14159
 0.669131 -0.743145  -3.14159
-0.743145 -0.669131  -3.14159
 0.743145 -0.669131  -3.14159
-0.809017 -0.587785  -3.14159
 0.809017 -0.587785  -3.14159
-0.866025      -0.5  -3.14159
0.866025     -0.5 -3.14159
-0.913545 -0.406737  -3.14159
 0.913545 -0.406737  -3.14159
-0.951057 -0.309017  -3.14159
 0.951057 -0.309017  -3.14159
-0.978148 -0.207912  -3.14159
 0.978148 -0.207912  -3.14159
-0.994522 -0.104528  -3.14159
 0.994522 -0.104528  -3.14159
          -1 -5.66554e-16     -3.14159
       1        0 -3.14159
-0.994522  0.104528  -3.14159
0.994522 0.104528 -3.14159
-0.978148  0.207912  -3.14159
0.978148 0.207912 -3.14159
-0.951057  0.309017  -3.14159
0.951057 0.309017 -3.14159
-0.913545  0.406737  -3.14159
0.913545 0.406737 -3.14159
-0.866025       0.5  -3.14159
0.866025      0.5 -3.14159
-0.809017  0.587785  -3.14159
0.809017 0.587785 -3.14159
-0.743145  0.669131  -3.14159
0.743145 0.669131 -3.14159
-0.669131  0.743145  -3.14159
0.669131 0.743145 -3.14159
-0.587785  0.809017  -3.14159
0.587785 0.809017 -3.14159
    -0.5 0.866025 -3.14159
     0.5 0.866025 -3.14159
-0.406737  0.913545  -3.14159
0.406737 0.913545 -3.14159
-0.309017  0.951057  -3.14159
0.309017 0.951057 -3.14159
-0.207912  0.978148  -3.14159
0.207912 0.978148 -3.14159
-0.104528  0.994522  -3.14159
0.104528 0.994522 -3.14159
-1.83697e-16            1     -3.14159
-0.052336  -0.99863   -3.0509
0.052336 -0.99863  -3.0509
-0.156434 -0.987688   -3.0509
 0.156434 -0.987688   -3.0509
-0.258819 -0.965926   -3.0509
 0.258819 -0.965926   -3.0509
-0.358368  -0.93358   -3.0509
0.358368 -0.93358  -3.0509
 -0.45399 -0.891007   -3.0509
  0.45399 -0.891007   -3.0509
-0.544639 -0.838671   -3.0509
 0.544639 -0.838671   -3.0509
 -0.62932 -0.777146   -3.0509
  0.62932 -0.777146   -3.0509
-0.707107 -0.707107   -3.0509
 0.707107 -0.707107   -3.0509
-0.777146  -0.62932   -3.0509
0.777146 -0.62932  -3.0509
-0.838671 -0.544639   -3.0509
 0.838671 -0.544639   -3.0509
-0.891007  -0.45399   -3.0509
0.891007 -0.45399  -3.0509
 -0.93358 -0.358368   -3.0509
  0.93358 -0.358368   -3.0509
-0.965926 -0.258819   -3.0509
 0.965926 -0.258819   -3.0509
-0.987688 -0.156434   -3.0509
 0.987688 -0.156434   -3.0509
 -0.99863 -0.052336   -3.0509
  0.99863 -0.052336   -3.0509
-0.99863 0.052336  -3.0509
 0.99863 0.052336  -3.0509
-0.987688  0.156434   -3.0509
0.987688 0.156434  -3.0509
-0.965926  0.258819   -3.0509
0.965926 0.258819  -3.0509
-0.93358 0.358368  -3.0509
 0.93358 0.358368  -3.0509
-0.891007   0.45399   -3.0509
0.891007  0.45399  -3.0509
-0.838671  0.544639   -3.0509
0.838671 0.544639  -3.0509
-0.777146   0.62932   -3.0509
0.777146  0.62932  -3.0509
-0.707107  0.707107   -3.0509
0.707107 0.707107  -3.0509
-0.62932 0.777146  -3.0509
 0.62932 0.777146  -3.0509
-0.544639  0.838671   -3.0509
0.544639 0.838671  -3.0509
-0.45399 0.891007  -3.0509
 0.45399 0.891007  -3.0509
-0.358368   0.93358   -3.0509
0.358368  0.93358  -3.0509
-0.258819  0.965926   -3.0509
0.258819 0.965926  -3.0509
-0.156434  0.987688   -3.0509
0.156434 0.987688  -3.0509
-0.052336   0.99863   -3.0509
0.052336  0.99863  -3.0509
6.12323e-17          -1    -2.96021
-0.104528 -0.994522  -2.96021
 0.104528 -0.994522  -2.96021
-0.207912 -0.978148  -2.96021
 0.207912 -0.978148  -2.96021
-0.309017 -0.951057  -2.96021
 0.309017 -0.951057  -2.96021
-0.406737 -0.913545  -2.96021
 0.406737 -0.913545  -2.96021
     -0.5 -0.866025  -2.96021
      0.5 -0.866025  -2.96021
-0.587785 -0.809017  -2.96021
 0.587785 -0.809017  -2.96021
-0.669131 -0.743145  -2.96021
 0.669131 -0.743145  -2.96021
-0.743145 -0.669131  -2.96021
 0.743145 -0.669131  -2.96021
-0.809017 -0.587785  -2.96021
 0.809017 -0.587785  -2.96021
-0.866025      -0.5  -2.96021
0.866025     -0.5 -2.96021
-0.913545 -0.406737  -2.96021
 0.913545 -0.406737  -2.96021
-0.951057 -0.309017  -2.96021
 0.951057 -0.309017  -2.96021
-0.978148 -0.207912  -2.96021
 0.978148 -0.207912  -2.96021
-0.994522 -0.104528  -2.96021
 0.994522 -0.104528  -2.96021
          -1 -5.66554e-16     -2.96021
          1 2.77556e-17    -2.96021
-0.994522  0.104528  -2.96021
0.994522 0.104528 -2.96021
-0.978148  0.207912  -2.96021
0.978148 0.207912 -2.96021
-0.951057  0.309017  -2.96021
0.951057 0.309017 -2.96021
-0.913545  0.406737  -2.96021
0.913545 0.406737 -2.96021
-0.866025       0.5  -2.96021
0.866025      0.5 -2.96021
-0.809017  0.587785  -2.96021
0.809017 0.587785 -2.96021
-0.743145  0.669131  -2.96021
0.743145 0.669131 -2.96021
-0.669131  0.743145  -2.96021
0.669131 0.743145 -2.96021
-0.587785  0.809017  -2.96021
0.587785 0.809017 -2.96021
    -0.5 0.866025 -2.96021
     0.5 0.866025 -2.96021
-0.406737  0.913545  -2.96021
0.406737 0.913545 -2.96021
-0.309017  0.951057  -2.96021
0.309017 0.951057 -2.96021
-0.207912  0.978148  -2.96021
0.207912 0.978148 -2.96021
-0.104528  0.994522  -2.96021
0.104528 0.994522 -2.96021
-1.83697e-16            1     -2.96021
-0.052336  -0.99863  -2.86952
0.052336 -0.99863 -2.86952
-0.156434 -0.987688  -2.86952
 0.156434 -0.987688  -2.86952
-0.258819 -0.965926  -2.86952
 0.258819 -0.965926  -2.86952
-0.358368  -0.93358  -2.86952
0.358368 -0.93358 -2.86952
 -0.45399 -0.891007  -2.86952
  0.45399 -0.891007  -2.86952
-0.544639 -0.838671  -2.86952
 0.544639 -0.838671  -2.86952
 -0.62932 -0.777146  -2.86952
  0.62932 -0.777146  -2.86952
-0.707107 -0.707107  -2.86952
 0.707107 -0.707107  -2.86952
-0.777146  -0.62932  -2.86952
0.777146 -0.62932 -2.86952
-0.838671 -0.544639  -2.86952
 0.838671 -0.544639  -2.86952
-0.891007  -0.45399  -2.86952
0.891007 -0.45399 -2.86952
 -0.93358 -0.358368  -2.86952
  0.93358 -0.358368  -2.86952
-0.965926 -0.258819  -2.86952
 0.965926 -0.258819  -2.86952
-0.987688 -0.156434  -2.86952
 0.987688 -0.156434  -2.86952
 -0.99863 -0.052336  -2.86952
  0.99863 -0.052336  -2.86952
-0.99863 0.052336 -2.86952
 0.99863 0.052336 -2.86952
-0.987688  0.156434  -2.86952
0.987688 0.156434 -2.86952
-0.965926  0.258819  -2.86952
0.965926 0.258819 -2.86952
-0.93358 0.358368 -2.86952
 0.93358 0.358368 -2.86952
-0.891007   0.45399  -2.86952
0.891007  0.45399 -2.86952
-0.838671  0.544639  -2.86952
0.838671 0.544639 -2.86952
-0.777146   0.62932  -2.86952
0.777146  0.62932 -2.86952
-0.707107  0.707107  -2.86952
0.707107 0.707107 -2.86952
-0.62932 0.777146 -2.86952
 0.62932 0.777146 -2.86952
-0.544639  0.838671  -2.86952
0.544639 0.838671 -2.86952
-0.45399 0.891007 -2.86952
 0.45399 0.891007 -2.86952
-0.358368   0.93358  -2.86952
0.358368  0.93358 -2.86952
-0.258819  0.965926  -2.86952
0.258819 0.965926 -2.86952
-0.156434  0.987688  -2.86952
0.156434 0.987688 -2.86952
-0.052336   0.99863  -2.86952
0.052336  0.99863 -2.86952
6.12323e-17          -1    -2.77883
-0.104528 -0.994522  -2.77883
 0.104528 -0.994522  -2.77883
-0.207912 -0.978148  -2.77883
 0.207912 -0.978148  -2.77883
-0.309017 -0.951057  -2.77883
 0.309017 -0.951057  -2.77883
-0.406737 -0.913545  -2.77883
 0.406737 -0.913545  -2.77883
     -0.5 -0.866025  -2.77883
      0.5 -0.866025  -2.77883
-0.587785 -0.809017  -2.77883
 0.587785 -0.809017  -2.77883
-0.669131 -0.743145  -2.77883
 0.669131 -0.743145  -2.77883
-0.743145 -0.669131  -2.77883
 0.743145 -0.669131  -2.77883
-0.809017 -0.587785  -2.77883
 0.809017 -0.587785  -2.77883
-0.866025      -0.5  -2.77883
0.866025     -0.5 -2.77883
-0.913545 -0.406737  -2.77883
 0.913545 -0.406737  -2.77883
-0.951057 -0.309017  -2.77883
 0.951057 -0.309017  -2.77883
-0.978148 -0.207912  -2.77883
 0.978148 -0.207912  -2.77883
-0.994522 -0.104528  -2.77883
 0.994522 -0.104528  -2.77883
          -1 -1.22465e-16     -2.77883
          1 5.55112e-17    -2.77883
-0.994522  0.104528  -2.77883
0.994522 0.104528 -2.77883
-0.978148  0.207912  -2.77883
0.978148 0.207912 -2.77883
-0.951057  0.309017  -2.77883
0.951057 0.309017 -2.77883
-0.913545  0.406737  -2.77883
0.913545 0.406737 -2.77883
-0.866025       0.5  -2.77883
0.866025      0.5 -2.77883
-0.809017  0.587785  -2.77883
0.809017 0.587785 -2.77883
-0.743145  0.669131  -2.77883
0.743145 0.669131 -2.77883
-0.669131  0.743145  -2.77883
0.669131 0.743145 -2.77883
-0.587785  0.809017  -2.77883
0.587785 0.809017 -2.77883
    -0.5 0.866025 -2.77883
     0.5 0.866025 -2.77883
-0.406737  0.913545  -2.77883
0.406737 0.913545 -2.77883
-0.309017  0.951057  -2.77883
0.309017 0.951057 -2.77883
-0.207912  0.978148  -2.77883
0.207912 0.978148 -2.77883
-0.104528  0.994522  -2.77883
0.104528 0.994522 -2.77883
-1.83697e-16            1     -2.77883
-0.052336  -0.99863  -2.68814
0.052336 -0.99863 -2.68814
-0.156434 -0.987688  -2.68814
 0.156434 -0.987688  -2.68814
-0.258819 -0.965926  -2.68814
 0.258819 -0.965926  -2.68814
-0.358368  -0.93358  -2.68814
0.358368 -0.93358 -2.68814
 -0.45399 -0.891007  -2.68814
  0.45399 -0.891007  -2.68814
-0.544639 -0.838671  -2.68814
 0.544639 -0.838671  -2.68814
 -0.62932 -0.777146  -2.68814
  0.62932 -0.777146  -2.68814
-0.707107 -0.707107  -2.68814
 0.707107 -0.707107  -2.68814
-0.777146  -0.62932  -2.68814
0.777146 -0.62932 -2.68814
-0.838671 -0.544639  -2.68814
 0.838671 -0.544639  -2.68814
-0.891007  -0.45399  -2.68814
0.891007 -0.45399 -2.68814
 -0.93358 -0.358368  -2.68814
  0.93358 -0.358368  -2.68814
-0.965926 -0.258819  -2.68814
 0.965926 -0.258819  -2.68814
-0.987688 -0.156434  -2.68814
 0.987688 -0.156434  -2.68814
 -0.99863 -0.052336  -2.68814
  0.99863 -0.052336  -2.68814
-0.99863 0.052336 -2.68814
 0.99863 0.052336 -2.68814
-0.987688  0.156434  -2.68814
0.987688 0.156434 -2.68814
-0.965926  0.258819  -2.68814
0.965926 0.258819 -2.68814
-0.93358 0.358368 -2.68814
 0.93358 0.358368 -2.68814
[...]
POINT_DATA 4260
SCALARS Field double
LOOKUP_TABLE default
2.37562
2.29499
2.41041
2.19652
2.42841
2.08814
2.42424
1.94215
2.37308
1.78646
2.30704
1.6276
2.22302
1.43565
2.09732
1.23613
1.96191
1.03389
1.81257
0.79844
1.62423
0.556227
1.42789
0.314489
1.21925
0.0460152
0.974506
-0.219214
0.726999
-0.470813
0.475355
-0.73406
0.198686
-0.978642
-0.0675723
-1.19544
-0.324133
-1.41251
-0.592605
-1.60327
-0.839519
-1.76243
-1.06827
-1.92138
-1.30293
-2.05568
-1.51173
-2.16058
-1.69863
-2.2665
-1.88699
-2.34686
-2.04354
-2.39412
-2.17062
-2.43625
-2.29054
-2.44516
-2.37011
-2.41327
1.63514
1.812
1.45493
1.97672
1.24457
2.1005
1.03272
2.21169
0.826437
2.30418
0.595976
2.35233
0.366695
2.38717
0.142995
2.4042
-0.106149
2.37801
-0.354734
2.33874
-0.595727
2.28027
-0.85613
2.17591
-1.10536
2.0554
-1.33218
1.91363
-1.56091
1.72646
-1.76044
1.52722
-1.92129
1.31457
-2.07174
1.06765
-2.18607
0.821708
-2.26058
0.575552
-2.32874
0.307004
-2.36846
0.0489972
-2.37737
-0.202184
-2.388
-0.470449
-2.37535
-0.723293
-2.33287
-0.963444
-2.28883
-1.21263
-2.21494
-1.43575
-2.10309
-1.63354
-1.98227
-1.82701
0.603814
0.351212
0.835375
0.107736
1.07147
-0.11813
1.30249
-0.355148
1.49932
-0.577706
1.69023
-0.782084
1.86901
-1.00082
2.0096
-1.21
2.14211
-1.40491
2.26042
-1.61458
2.33715
-1.80976
2.40016
-1.97971
2.44126
-2.14827
2.43216
-2.28311
2.40165
-2.37321
2.34423
-2.44542
2.23589
-2.47317
2.11019
-2.45286
1.96575
-2.41918
1.78126
-2.35235
1.59097
-2.25313
1.39224
-2.15756
1.16135
-2.04398
0.929946
-1.90862
0.693591
-1.78152
0.428486
-1.63498
0.168054
-1.46046
-0.0889543
-1.28574
-0.362544
-1.08382
-0.616136
-0.849568
-0.830648
-0.58422
-1.04926
-0.32017
-1.26687
-0.0697179
-1.45622
0.192518
-1.61286
0.457504
-1.76983
0.697103
-1.90503
0.940502
-2.01676
1.18186
-2.13766
1.39466
-2.24213
1.60759
-2.32248
1.81247
-2.40442
1.97953
-2.45608
2.13453
-2.46568
2.26772
-2.4582
2.35013
-2.40484
2.41062
-2.30004
2.44419
-2.17735
2.42731
-2.01713
2.39351
-1.82177
2.34058
-1.63022
2.24554
-1.42461
2.14034
-1.2052
2.01982
-1.00559
1.85812
-0.800589
1.68558
-0.582776
1.49744
-0.379548
1.2706
-0.162303
1.03987
0.0763759
0.805486
0.30571
0.548506
-1.80757
-1.98121
-1.62651
-2.11805
-1.41269
-2.21147
-1.17662
-2.293
-0.948643
-2.34034
-0.701577
-2.35317
-0.442274
-2.36707
-0.19695
-2.36049
0.0646664
-2.33033
0.336638
-2.30652
0.591237
-2.2604
0.85518
-2.18188
1.11802
-2.09596
1.34819
-1.97229
1.57045
-1.80286
1.77498
-1.61842
1.93361
-1.39697
2.07626
-1.13971
2.19867
-0.885853
2.27724
-0.619367
2.34434
-0.343661
2.3954
-0.0961499
2.40442
0.144611
2.40022
0.383096
2.37497
0.590369
2.30125
0.795148
2.20904
1.00649
2.09425
1.19632
1.93511
1.39055
1.76766
1.59265
-2.44497
-2.37881
-2.46548
-2.27553
-2.46946
-2.16525
-2.43244
-2.0219
-2.35296
-1.8539
-2.26698
-1.68859
-2.155
-1.49558
-2.01746
-1.2791
-1.88876
-1.06385
-1.7448
-0.81941
-1.57947
-0.552837
-1.4204
-0.293641
-1.23817
-0.0169176
-1.02405
0.265646
-0.806588
0.522314
-0.560774
0.778739
-0.284756
1.02665
-0.0152953
1.23953
0.264878
1.44838
0.552023
1.64877
0.806974
1.81561
1.04838
1.97853
1.27749
2.12948
1.46258
2.23912
1.63064
2.33363
1.79052
2.40376
1.91557
2.42201
2.03442
2.4193
2.15391
2.39283
2.24237
2.32183
-2.32742
-2.25479
-2.38854
-2.14392
-2.41034
-1.99091
-2.40113
-1.82975
-2.38924
-1.64017
-2.3455
-1.42337
-2.27448
-1.21598
-2.1998
-0.997258
-2.08817
-0.765052
-1.94231
-0.550739
-1.7868
-0.327816
-1.59229
-0.089167
-1.36737
0.13661
-1.14285
0.375994
-0.894226
0.633368
-0.632456
0.875115
-0.387451
1.12157
-0.13118
1.37132
0.13022
1.58639
0.371519
1.78531
0.623586
1.96802
0.880259
2.10074
1.11361
2.20838
1.34991
2.29825
1.57797
2.34332
1.76629
2.37326
1.94027
2.39727
2.09106
2.38685
2.19248
2.36739
2.27685
2.34219
-1.51151
-1.68532
-1.30506
-1.83209
-1.09761
-1.97906
-0.866593
-2.09739
-0.611608
-2.19285
-0.368707
-2.29014
-0.117794
-2.35603
0.141554
-2.39147
0.375565
-2.41748
0.608146
-2.3996
0.844071
-2.34073
1.05318
-2.26657
1.26145
-2.14902
1.47384
-1.99748
1.65842
-1.84236
1.83799
-1.65756
2.01393
-1.45149
2.15096
-1.2511
2.26975
-1.02582
2.37143
-0.780442
2.42249
-0.540298
2.44726
-0.276099
2.452
0.00333894
2.40878
0.267214
2.34696
0.539417
2.2764
0.807428
2.17037
1.03978
2.05685
1.263
1.94204
1.46995
1.79415
1.63597
-0.405977
-0.17762
-0.646909
0.062584
-0.869831
0.317095
-1.08022
0.551752
-1.30386
0.788017
-1.50922
1.02695
-1.69861
1.23478
-1.89318
1.43493
-2.0567
1.63133
-2.18827
1.79294
-2.30838
1.94504
-2.38318
2.09214
-2.41681
2.20241
-2.43606
2.29936
-2.41312
2.38555
-2.35649
2.42752
-2.2944
2.44804
-2.19768
2.45037
-2.07157
2.40289
-1.94038
2.33131
-1.77209
2.24265
-1.57156
2.10919
-1.36542
1.96023
-1.12642
1.80564
-0.865529
1.61915
-0.614919
1.42984
-0.350973
1.24567
-0.0853432
1.03692
0.152284
0.828367
0.390503
0.623814
0.996287
0.772986
1.2213
0.547774
1.41533
0.295617
1.60131
0.047369
1.7816
-0.201176
1.92364
-0.47368
2.05202
-0.735988
2.17174
-0.987858
2.25289
-1.24851
2.32174
-1.48081
2.38354
-1.68411
2.40692
-1.87994
2.41551
-2.03583
2.41179
-2.15697
2.36226
-2.27019
2.28996
-2.34644
2.19881
-2.39189
2.05844
-2.43162
1.89622
-2.43327
1.72089
-2.39961
1.50639
-2.35355
1.28332
-2.26294
1.06237
-2.1336
0.817776
-1.99351
0.579046
-1.81658
0.354666
-1.61422
0.115733
-1.41798
-0.111925
-1.20262
-0.323459
-0.977655
-0.55094
-0.770541
1.94421
2.07667
1.77149
2.1925
1.59047
2.29454
1.39693
2.35076
1.16566
2.3865
0.927917
2.40801
0.680533
2.3873
0.401215
2.35315
0.12544
2.31355
-0.145756
2.23965
-0.431605
2.15696
-0.69584
2.06874
-0.939329
1.94126
-1.18518
1.79657
-1.40195
1.63721
-1.59496
1.43172
-1.78985
1.20708
-1.95533
0.972523
-2.09477
0.703307
-2.23037
0.431875
-2.32751
0.170775
-2.38777
-0.104145
-2.43375
-0.36232
-2.43378
-0.594766
-2.39444
-0.830248
-2.34407
-1.04296
-2.25622
-1.2281
-2.14115
-1.41775
-2.0285
-1.58823
-1.89079
-1.73545
2.44988
2.41484
2.4686
2.36055
2.43845
2.26259
2.38396
2.15172
2.31076
2.02257
2.19117
1.84909
2.05556
1.66228
1.91476
1.45911
1.7438
1.21757
1.57224
0.973117
1.40673
0.726114
1.21558
0.456026
1.02112
0.197346
0.824457
-0.0526459
0.591611
-0.318326
0.346739
-0.568581
0.0966863
-0.808014
-0.18447
-1.06048
-0.464127
-1.29234
-0.728471
-1.5047
-0.999674
-1.71788
-1.24515
-1.89615
-1.45442
-2.0408
-1.65549
-2.17458
-1.82262
-2.26601
-1.95166
-2.32163
-2.07567
-2.36907
-2.17202
-2.38058
-2.2376
-2.36471
-2.30486
-2.34921
2.25664
2.14816
2.32186
2.01972
2.37624
1.87473
2.41542
1.68318
2.41271
1.47395
2.39645
1.2579
2.35923
1.01216
2.27372
0.770182
2.17034
0.54338
2.04581
0.304769
1.87779
0.0800857
1.70093
-0.128347
1.5141
-0.355566
1.2948
-0.580439
1.07548
-0.800275
0.851699
-1.04506
0.59828
-1.28521
0.34655
-1.50837
0.0929331
-1.73641
-0.184752
-1.93518
-0.451109
-2.09214
-0.705908
-2.23342
-0.968605
-2.33223
-1.20313
-2.38447
-1.41088
-2.42419
-1.61462
-2.43038
-1.78268
-2.40183
-1.92106
-2.37272
-2.05645
-2.31999
-2.15995
-2.23894
1.32767
1.51341
1.13766
1.69277
0.910346
1.84158
0.67066
1.9897
0.425783
2.1293
0.15072
2.23015
-0.120824
2.31783
-0.374792
2.38334
-0.633596
2.39876
-0.866251
2.39453
-1.06603
2.36734
-1.26548
2.29426
-1.44365
2.20856
-1.6007
2.10698
-1.77118
1.96469
-1.93071
1.81208
-2.07151
1.64326
-2.21835
1.43264
-2.33795
1.21201
-2.41693
0.978708
-2.47948
0.711744
-2.49673
0.447478
-2.46322
0.186601
-2.41281
-0.0901984
-2.32553
-0.346968
-2.20216
-0.585372
-2.07929
-0.828259
-1.93616
-1.04387
-1.76992
-1.23806
-1.61222
-1.43725
0.20281
-0.0314121
0.418219
-0.262509
0.64833
-0.488232
0.889018
-0.738984
1.11227
-0.985474
1.34348
-1.2159
1.57087
-1.45201
1.76158
-1.65952
1.9402
-1.82691
2.09801
-1.98178
2.20801
-2.09968
2.30136
-2.17987
2.37457
-2.2588
2.4035
-2.31636
2.41925
-2.3503
2.41586
-2.39075
2.36604
-2.40836
2.29838
-2.39168
2.20601
-2.36469
2.06329
-2.29678
1.90258
-2.18036
1.72179
-2.04752
1.50052
-1.87776
1.27533
-1.67271
1.04667
-1.47099
0.794808
-1.25448
0.555138
-1.02295
0.325309
-0.81003
0.0818305
-0.591108
-0.144241
-0.359541
-1.19033
-0.990665
-1.36568
-0.766811
-1.55188
-0.541635
-1.72585
-0.285028
-1.88203
-0.00583639
-2.04663
0.263211
-2.18705
0.544072
-2.29053
0.823504
-2.38099
1.06912
-2.4293
1.30732
-2.43074
1.53151
-2.41978
1.71628
-2.37696
1.8931
-2.30348
2.05724
-2.23443
2.18225
-2.14584
2.29643
-2.03064
2.39101
-1.91521
2.43671
-1.76916
2.46105
-1.58339
2.45679
-1.38762
2.39862
-1.15922
2.31927
-0.898865
2.21681
-0.645622
2.0707
-0.383186
1.91706
-0.113945
1.75546
0.125813
1.56523
0.358703
1.3806
0.590392
1.19782
0.792097
0.991851
-2.06238
-2.16861
-1.94853
-2.24765
-1.79147
-2.29989
-1.59373
-2.3583
-1.38266
-2.39625
-1.13307
-2.40476
-0.857749
-2.40853
-0.591341
-2.37638
-0.311413
-2.29994
-0.0287539
-2.20968
0.227737
-2.08344
0.487804
-1.92207
0.746992
-1.76278
0.980342
-1.58554
1.21811
-1.38809
1.45302
-1.20085
1.65576
-0.995774
1.852
-0.76407
2.03104
-0.533832
2.16273
-0.279768
2.27445
-5.16442e-05
2.35907
0.267795
2.39153
0.540096
2.40459
0.81296
2.39579
1.04772
2.34393
1.26446
2.28415
1.46697
2.21476
1.62573
2.11363
1.76935
2.01322
1.90757
-2.45841
-2.47066
-2.40708
-2.44181
-2.35404
-2.39283
-2.2787
-2.29188
-2.17845
-2.14618
-2.08284
-1.98726
-1.96307
-1.79226
-1.81047
-1.57364
-1.653
-1.36335
-1.46509
-1.13459
-1.24477
-0.893374
-1.02804
-0.664655
-0.795817
-0.416406
-0.548682
-0.152908
-0.320708
0.0994384
-0.0871268
0.368447
0.158946
0.644088
0.389575
0.894937
0.632051
1.14548
0.891209
1.38448
1.1326
1.58201
1.37464
1.76581
1.61387
1.92877
1.81053
2.04567
1.98256
2.14874
2.13134
2.23471
2.22565
2.28149
2.29361
2.32319
2.34589
2.35669
2.35736
2.35806
-2.16126
-2.01879
-2.29528
-1.84947
-2.384
-1.6551
-2.42822
-1.47057
-2.45317
-1.27184
-2.43111
-1.05345
-2.37181
-0.84413
-2.30691
-0.616929
-2.21099
-0.367364
-2.0919
-0.128783
-1.97606
0.119475
-1.83141
0.37661
-1.66035
0.606829
-1.48608
0.832339
-1.27684
1.05762
-1.03869
1.25368
-0.800244
1.44863
-0.53564
1.64979
-0.256253
1.82634
0.00623033
2.0003
0.276695
2.17074
0.544371
2.29877
0.779806
2.40148
1.01083
2.47817
1.2299
2.49532
1.41134
2.47937
1.58692
2.44066
1.7529
2.35529
1.8868
2.2557
2.02192
2.15363
-1.14716
-1.37318
-0.896508
-1.57269
-0.658149
-1.76629
-0.41145
-1.92069
-0.154707
-2.04039
0.0806035
-2.15335
0.320382
-2.23232
0.569691
-2.28502
0.797099
-2.33886
1.02549
-2.36286
1.25547
-2.35933
1.45148
-2.35017
1.63466
-2.30068
1.80759
-2.21268
1.93976
-2.11031
2.05897
-1.96345
2.17389
-1.77998
2.25689
-1.58941
2.33417
-1.36581
2.40885
-1.11996
2.44504
-0.882383
2.46097
-0.62725
2.45506
-0.365083
2.39169
-0.125394
2.2948
0.119313
2.1729
0.361144
2.00179
0.574646
1.81527
0.79218
1.62779
1.01057
1.41548
1.20751
0.0102616
0.256599
-0.253835
0.50596
-0.500448
0.758742
-0.730502
0.981683
-0.967894
1.19921
-1.18186
1.41575
-1.37765
1.60056
-1.58191
1.77813
-1.76393
1.95079
-1.9266
2.08421
-2.09223
2.19968
-2.22544
2.29875
-2.32582
2.34939
-2.41425
2.37822
-2.45657
2.39388
-2.45612
2.37059
-2.43841
2.33816
-2.37395
2.30427
-2.27043
2.23756
-2.15601
2.15957
-2.003
2.06992
-1.8208
1.93208
-1.63901
1.76751
-1.43168
1.58175
-1.20992
1.34838
-1.00355
1.10068
-0.784783
0.854396
-0.560435
0.588615
-0.354007
0.336019
-0.131114
0.106347
1.36546
1.1552
1.57151
0.93891
1.74078
0.693463
1.89789
0.451507
2.04728
0.210099
2.15888
-0.0555855
2.25852
-0.313977
2.35015
-0.567822
2.40114
-0.840124
2.43377
-1.09621
2.44933
-1.33557
2.41456
-1.57839
2.35432
-1.78864
2.27578
-1.96677
2.15307
-2.13516
2.01783
-2.26096
1.88131
-2.34838
1.71702
-2.4223
1.55131
-2.45147
1.38722
-2.44141
1.18952
-2.41793
0.97854
-2.35182
0.756744
-2.2523
0.494086
-2.14955
0.220899
-2.01848
-0.0482035
-1.87066
-0.332985
-1.7349
-0.597758
-1.58101
-0.828994
-1.41239
-1.05408
-1.24902
2.1753
2.2623
2.04334
2.33065
1.89715
2.38622
1.73323
2.40057
1.52697
2.40151
1.31047
2.39518
1.08145
2.35129
0.816705
2.29406
0.550198
2.22557
0.281678
2.11212
-0.00998725
1.9769
-0.289288
1.82461
-0.556247
1.6273
-0.832504
1.4159
-1.08399
1.20279
-1.31316
0.964781
-1.54326
0.732954
-1.74098
0.515123
-1.90888
0.279673
-2.06898
0.0482475
-2.18693
-0.17819
-2.26624
-0.433269
-2.3318
-0.691181
-2.35503
-0.941284
-2.34703
-1.20526
-2.33938
-1.44676
-2.30727
-1.64933
-2.26058
-1.83619
-2.22429
-1.97956
-2.16324
-2.07609
2.44064
2.46814
2.39525
2.47055
2.30549
2.4205
2.20163
2.34824
2.09258
2.25058
1.9513
2.10373
1.80515
1.94111
1.6585
1.76197
1.4788
1.54409
1.28875
1.3217
1.09084
1.09368
0.854062
0.837003
0.606353
0.584637
0.358172
0.333596
0.0865608
0.0598479
-0.174914
-0.203917
-0.414346
-0.460459
-0.658671
-0.731476
-0.882582
-0.980705
-1.08387
-1.20749
-1.29772
-1.43067
-1.50242
-1.61421
-1.69279
-1.76224
-1.8955
-1.90176
-2.07715
-2.00706
-2.22141
-2.09157
-2.34868
-2.18693
-2.4267
-2.26565
-2.44769
-2.3326
-2.44641
-2.40645
2.06756
1.89021
2.19817
1.69769
2.30821
1.50102
2.39122
1.27629
2.42098
1.05459
2.42937
0.843858
2.41494
0.614567
2.35491
0.39103
2.28283
0.1753
2.19685
-0.0658254
2.0723
-0.307987
1.94006
-0.544763
1.79512
-0.802124
1.6109
-1.04756
1.41755
-1.26795
1.20989
-1.48685
0.963259
-1.67468
0.711219
-1.82568
0.453016
-1.97353
0.170469
-2.09797
-0.0964154
-2.19821
-0.34467
-2.30695
-0.592514
-2.39676
-0.805929
-2.45544
-0.993195
-2.50432
-1.18547
-2.50872
-1.35986
-2.45618
-1.52975
-2.37612
-1.72315
-2.24842
-1.9064
-2.07725
0.954913
1.19969
0.706874
1.43062
0.432806
1.61754
0.166314
1.78896
-0.0813824
1.94128
-0.335984
2.05058
-0.569764
2.15015
-0.778724
2.23855
-0.995906
2.29098
-1.19891
2.33742
-1.38518
2.37139
-1.5852
2.36336
-1.77048
2.34014
-1.93037
2.29352
-2.08836
2.19512
-2.21248
2.07434
-2.29335
1.92569
-2.36102
1.72568
-2.39335
1.51056
-2.3907
1.28285
-2.38982
1.02804
-2.36952
0.788089
-2.32437
0.564697
-2.28076
0.335849
-2.20591
0.129827
-2.08561
-0.0674009
-1.94445
-0.290128
-1.75622
-0.514955
-1.52014
-0.75092
-1.27796
-1.01895
-0.190766
-0.466125
0.061356
-0.73163
0.315075
-0.975172
0.56327
-1.21996
0.779427
-1.43493
0.995476
-1.61289
1.21027
-1.78447
1.40015
-1.92654
1.59644
-2.03808
1.7937
-2.15301
1.96157
-2.24741
2.12441
-2.31539
2.27108
-2.38378
2.36952
-2.42165
2.44579
-2.41839
2.49129
-2.40087
2.47751
-2.34334
2.4338
-2.24392
2.35502
-2.13957
2.22028
-2.01246
2.06976
-1.86317
1.9091
-1.72499
1.72512
-1.57094
1.55736
-1.38977
1.40136
-1.205
1.22776
-0.985782
1.05822
-0.724798
0.875244
-0.457479
0.645692
-0.169461
0.398096
0.130929
-1.52549
-1.30925
-1.71826
-1.07914
-1.91134
-0.864638
-2.07255
-0.636512
-2.19263
-0.397265
-2.29936
-0.170204
-2.36714
0.077909
-2.39396
0.34493
-2.41438
0.603217
-2.40716
0.878343
-2.3707
1.15869
-2.33645
1.40889
-2.27729
1.65122
-2.18464
1.87511
-2.08489
2.05089
-1.94966
2.20623
-1.77361
2.33116
-1.59075
2.39515
-1.38241
2.42733
-1.15147
2.42487
-0.936205
2.37188
-0.716179
2.31264
-0.486383
2.25286
-0.273981
2.17552
-0.047923
2.11245
0.203127
2.05005
0.450591
1.9519
0.716137
1.83652
0.996584
1.68826
1.24769
1.47995
-2.22145
-2.32654
-2.1164
-2.40147
-1.9842
-2.43757
-1.82971
-2.46154
-1.67772
-2.44584
-1.49494
-2.38653
-1.28111
-2.31676
-1.0597
-2.21527
-0.800345
-2.0823
-0.510186
-1.95257
-0.223497
-1.80302
0.0797448
-1.62894
0.38536
-1.45902
0.660237
-1.265
0.932876
-1.03956
1.19787
-0.813231
1.4263
-0.563763
1.64123
-0.29219
1.82682
-0.0374721
1.95181
0.217258
2.05018
0.47126
2.12549
0.691463
2.16696
0.904803
2.21872
1.12181
2.28029
1.31725
2.32546
1.51939
2.37605
1.73277
2.41126
1.9197
2.3925
2.09372
2.3411
2.24805
-2.39135
-2.42014
-2.32832
-2.42045
-2.25909
-2.4188
-2.15612
-2.38368
-2.01472
-2.31541
-1.86656
-2.2357
-1.68901
-2.11006
-1.48202
-1.93916
-1.28104
-1.75065
-1.06511
-1.52017
-0.832775
-1.26082
-0.615856
-1.0109
-0.388288
-0.748712
-0.143331
-0.48072
0.0901808
-0.227208
0.337853
0.0489156
0.602456
0.337075
0.848071
0.594775
1.09246
0.83643
1.33286
1.04773
1.53197
1.20722
1.71153
1.35915
1.87771
1.51151
2.00384
1.65225
2.12054
1.81767
2.23806
1.99636
2.32651
2.15205
2.40674
2.30008
2.47627
2.4188
2.49354
2.47381
-1.89303
-1.73657
-2.05023
-1.55479
-2.17781
-1.34381
-2.27815
-1.13505
-2.37436
-0.905072
-2.43188
-0.653026
-2.44846
-0.413689
-2.44566
-0.166123
-2.39124
0.0899769
-2.2898
0.320925
-2.17529
0.550624
-2.02877
0.78396
-1.8653
0.991675
-1.71832
1.20076
-1.54973
1.41691
-1.34322
1.60824
-1.10877
1.79627
-0.832557
1.98033
-0.553124
2.12288
-0.318436
2.24305
-0.101197
2.34274
0.0989855
2.39131
0.273145
2.41738
0.469326
2.43232
0.691163
2.41097
0.917315
2.38133
1.17234
2.3482
1.43538
2.27534
1.66541
2.17942
1.87853
2.05881
-0.738341
-0.973465
-0.483845
-1.19212
-0.241657
-1.41921
0.0117144
-1.62268
0.277221
-1.80232
0.520612
-1.97917
0.763385
-2.11734
1.00598
-2.21407
1.21458
-2.29325
1.4124
-2.32719
1.60312
-2.32535
1.75654
-2.32757
1.89951
-2.31732
2.03875
-2.30526
2.14499
-2.29387
2.2435
-2.19463
2.33742
-1.9951
2.39225
-1.77619
2.42825
-1.55752
2.44607
-1.36059
2.41216
-1.20527
2.35174
-1.04575
2.27372
-0.873006
2.15315
-0.694534
2.02142
-0.46935
1.88914
-0.204552
1.72703
0.0673971
1.55742
0.362943
1.38088
0.658886
1.16044
0.917114
0.439922
0.677809
0.180102
0.918114
-0.0708982
1.1621
-0.316142
1.37578
-0.580296
1.58079
-0.830234
1.77751
-1.06351
1.93236
-1.29967
2.06882
-1.5027
2.19055
-1.67043
2.26731
-1.83084
2.32591
-1.96221
2.37319
-2.07817
2.38089
-2.22061
2.37643
-2.36059
2.36586
-2.46239
2.31824
-2.48707
2.25704
-2.38981
2.18469
-2.25575
2.06766
-2.16249
1.92947
-2.07869
1.77617
-2.00201
1.58042
-1.93917
1.37298
-1.84097
1.16626
-1.70111
0.935449
-1.53553
0.708832
-1.31455
0.492211
-1.05464
0.251538
-0.793879
0.00691823
-0.515907
-0.238788
1.68557
1.49848
1.87025
1.3054
2.02028
1.07917
2.15804
0.84829
2.28361
0.609359
2.36301
0.338605
2.41949
0.0711909
2.45659
-0.187223
2.44457
-0.454731
2.41089
-0.696578
2.36296
-0.912674
2.27331
-1.13585
2.1704
-1.34112
2.06169
-1.52232
1.91842
-1.70796
1.76678
-1.90286
1.61171
-2.07402
1.42167
-2.16486
1.22085
-2.19666
1.01431
-2.22893
0.772691
-2.28953
0.524556
-2.33712
0.280884
-2.36597
0.0174863
-2.38253
-0.234437
-2.34337
-0.464755
-2.25068
-0.702848
-2.13052
-0.925517
-1.96067
-1.13021
-1.75999
-1.35109
-1.56434
2.31084
2.36669
2.21793
2.41122
2.11561
2.44595
1.99611
2.43698
1.82902
2.40663
1.6419
2.35718
1.43357
2.25831
1.1839
2.13769
0.931786
2.00344
0.686529
1.82936
0.42957
1.64519
0.189779
1.45944
-0.036268
1.24446
-0.276518
1.02772
-0.486185
0.815515
-0.68337
0.577899
-0.969471
0.340458
-1.24333
0.10874
-1.4418
-0.147033
-1.61978
-0.399712
-1.77866
-0.64042
-1.93818
-0.894966
-2.11168
-1.1325
-2.25502
-1.3417
-2.36276
-1.54899
-2.44785
-1.72755
-2.47526
-1.87223
-2.45449
-2.01671
-2.4165
-2.13977
-2.33928
-2.23732
2.31756
2.38259
2.24857
2.43728
2.1447
2.44964
2.02883
2.4417
1.90177
2.40285
1.73116
2.30284
1.54304
2.17262
1.3447
2.01738
1.1105
1.82258
0.871631
1.62979
0.638116
1.44859
0.383765
1.25118
0.137004
1.04358
-0.0955184
0.799535
-0.343477
0.504246
-0.581025
0.267439
-0.802525
0.0524271
-1.03774
-0.195813
-1.25996
-0.426482
-1.46155
-0.65059
-1.66994
-0.896147
-1.85588
-1.13461
-2.00919
-1.36845
-2.15612
-1.6087
-2.2683
-1.8131
-2.33839
-1.98099
-2.39787
-2.13247
-2.42466
-2.23785
-2.41641
-2.30845
-2.40721
-2.37385
1.73873
1.54231
1.9099
1.34795
2.08005
1.15755
2.23584
0.937413
2.33966
0.710656
2.41135
0.481402
2.44304
0.222081
2.41043
-0.0364027
2.35206
-0.28302
2.2807
-0.542059
2.18469
-0.783268
2.10327
-0.999058
2.03698
-1.219
1.92631
-1.41789
1.73518
-1.59134
1.50383
-1.77024
1.30668
-1.92884
1.12759
-2.06058
0.926
-2.19391
0.692694
-2.3008
0.464327
-2.37257
0.226723
-2.43661
-0.042728
-2.46498
-0.307902
-2.45011
-0.568144
-2.42228
-0.837431
-2.35789
-1.07777
-2.25397
-1.29271
-2.14526
-1.50588
-2.01106
-1.6881
-1.84805
0.480008
0.736744
0.243931
1.00676
-0.00287082
1.25502
-0.238405
1.49835
-0.462339
1.71914
-0.706593
1.87976
-0.943727
2.00494
-1.16445
2.09582
-1.39259
2.13727
-1.59597
2.17477
-1.76493
2.22408
-1.92748
2.27076
-2.05814
2.3501
-2.15376
2.43212
-2.24728
2.40773
-2.31532
2.29577
-2.35358
2.14617
-2.39218
1.97328
-2.40423
1.82026
-2.3821
1.67054
-2.35403
1.48994
-2.29287
1.30106
-2.19176
1.09262
-2.0812
0.844965
-1.93721
0.595812
-1.75631
0.345213
-1.5727
0.075767
-1.36572
-0.177504
-1.13352
-0.419566
-0.910456
-0.67425
-0.688944
-0.939898
-0.432083
-1.15955
-0.144652
-1.34838
0.158172
-1.54224
0.434679
-1.71913
0.698998
-1.87499