# vtk DataFile Version 3.1
vtk output
ASCII
DATASET POLYDATA
POINTS 4260 FLOAT
2.83277e-16          -1    -3.14159
-0.104528 -0.994522  -3.14159
 0.104528 -0.994522  -3.14159
-0.207912 -0.978148  -3.14159
 0.207912 -0.978148  -3.14159
-0.309017 -0.951057  -3.14159
 0.309017 -0.951057  -3.14159
-0.406737 -0.913545  -3.14159
 0.406737 -0.913545  -3.14159
     -0.5 -0.866025  -3.14159
      0.5 -0.866025  -3.14159
-0.587785 -0.809017  -3.14159
 0.587785 -0.809017  -3.14159
-0.669131 -0.743145  -3.14159
 0.669131 -0.743145  -3.14159
-0.743145 -0.669131  -3.14159
 0.743145 -0.669131  -3.14159
-0.809017 -0.587785  -3.14159
 0.809017 -0.587785  -3.14159
-0.866025      -0.5  -3.14159
0.866025     -0.5 -3.14159
-0.913545 -0.406737  -3.14159
 0.913545 -0.406737  -3.14159
-0.951057 -0.309017  -3.14159
 0.951057 -0.309017  -3.14159
-0.978148 -0.207912  -3.14159
 0.978148 -0.207912  -3.14159
-0.994522 -0.104528  -3.14159
 0.994522 -0.104528  -3.14159
          -1 -5.66554e-16     -3.14159
       1        0 -3.14159
-0.994522  0.104528  -3.14159
0.994522 0.104528 -3.14159
-0.978148  0.207912  -3.14159
0.978148 0.207912 -3.14159
-0.951057  0.309017  -3.14159
0.951057 0.309017 -3.14159
-0.913545  0.406737  -3.14159
0.913545 0.406737 -3.14159
-0.866025       0.5  -3.14159
0.866025      0.5 -3.14159
-0.809017  0.587785  -3.14159
0.809017 0.587785 -3.14159
-0.743145  0.669131  -3.14159
0.743145 0.669131 -3.14159
-0.669131  0.743145  -3.14159
0.669131 0.743145 -3.14159
-0.587785  0.809017  -3.14159
0.587785 0.809017 -3.14159
    -0.5 0.866025 -3.14159
     0.5 0.866025 -3.14159
-0.406737  0.913545  -3.14159
0.406737 0.913545 -3.14159
-0.309017  0.951057  -3.14159
0.309017 0.951057 -3.14159
-0.207912  0.978148  -3.14159
0.207912 0.978148 -3.14159
-0.104528  0.994522  -3.14159
0.104528 0.994522 -3.14159
-1.83697e-16            1     -3.14159
-0.052336  -0.99863   -3.0509
0.052336 -0.99863  -3.0509
-0.156434 -0.987688   -3.0509
 0.156434 -0.987688   -3.0509
-0.258819 -0.965926   -3.0509
 0.258819 -0.965926   -3.0509
-0.358368  -0.93358   -3.0509
0.358368 -0.93358  -3.0509
 -0.45399 -0.891007   -3.0509
  0.45399 -0.891007   -3.0509
-0.544639 -0.838671   -3.0509
 0.544639 -0.838671   -3.0509
 -0.62932 -0.777146   -3.0509
  0.62932 -0.777146   -3.0509
-0.707107 -0.707107   -3.0509
 0.707107 -0.707107   -3.0509
-0.777146  -0.62932   -3.0509
0.777146 -0.62932  -3.0509
-0.838671 -0.544639   -3.0509
 0.838671 -0.544639   -3.0509
-0.891007  -0.45399   -3.0509
0.891007 -0.45399  -3.0509
 -0.93358 -0.358368   -3.0509
  0.93358 -0.358368   -3.0509
-0.965926 -0.258819   -3.0509
 0.965926 -0.258819   -3.0509
-0.987688 -0.156434   -3.0509
 0.987688 -0.156434   -3.0509
 -0.99863 -0.052336   -3.0509
  0.99863 -0.052336   -3.0509
-0.99863 0.052336  -3.0509
 0.99863 0.052336  -3.0509
-0.987688  0.156434   -3.0509
0.987688 0.156434  -3.0509
-0.965926  0.258819   -3.0509
0.965926 0.258819  -3.0509
-0.93358 0.358368  -3.0509
 0.93358 0.358368  -3.0509
-0.891007   0.45399   -3.0509
0.891007  0.45399  -3.0509
-0.838671  0.544639   -3.0509
0.838671 0.544639  -3.0509
-0.777146   0.62932   -3.0509
0.777146  0.62932  -3.0509
-0.707107  0.707107   -3.0509
0.707107 0.707107  -3.0509
-0.62932 0.777146  -3.0509
 0.62932 0.777146  -3.0509
-0.544639  0.838671   -3.0509
0.544639 0.838671  -3.0509
-0.45399 0.891007  -3.0509
 0.45399 0.891007  -3.0509
-0.358368   0.93358   -3.0509
0.358368  0.93358  -3.0509
-0.258819  0.965926   -3.0509
0.258819 0.965926  -3.0509
-0.156434  0.987688   -3.0509
0.156434 0.987688  -3.0509
-0.052336   0.99863   -3.0509
0.052336  0.99863  -3.0509
6.12323e-17          -1    -2.96021
-0.104528 -0.994522  -2.96021
 0.104528 -0.994522  -2.96021
-0.207912 -0.978148  -2.96021
 0.207912 -0.978148  -2.96021
-0.309017 -0.951057  -2.96021
 0.309017 -0.951057  -2.96021
-0.406737 -0.913545  -2.96021
 0.406737 -0.913545  -2.96021
     -0.5 -0.866025  -2.96021
      0.5 -0.866025  -2.96021
-0.587785 -0.809017  -2.96021
 0.587785 -0.809017  -2.96021
-0.669131 -0.743145  -2.96021
 0.669131 -0.743145  -2.96021
-0.743145 -0.669131  -2.96021
 0.743145 -0.669131  -2.96021
-0.809017 -0.587785  -2.96021
 0.809017 -0.587785  -2.96021
-0.866025      -0.5  -2.96021
0.866025     -0.5 -2.96021
-0.913545 -0.406737  -2.96021
 0.913545 -0.406737  -2.96021
-0.951057 -0.309017  -2.96021
 0.951057 -0.309017  -2.96021
-0.978148 -0.207912  -2.96021
 0.978148 -0.207912  -2.96021
-0.994522 -0.104528  -2.96021
 0.994522 -0.104528  -2.96021
          -1 -5.66554e-16     -2.96021
          1 2.77556e-17    -2.96021
-0.994522  0.104528  -2.96021
0.994522 0.104528 -2.96021
-0.978148  0.207912  -2.96021
0.978148 0.207912 -2.96021
-0.951057  0.309017  -2.96021
0.951057 0.309017 -2.96021
-0.913545  0.406737  -2.96021
0.913545 0.406737 -2.96021
-0.866025       0.5  -2.96021
0.866025      0.5 -2.96021
-0.809017  0.587785  -2.96021
0.809017 0.587785 -2.96021
-0.743145  0.669131  -2.96021
0.743145 0.669131 -2.96021
-0.669131  0.743145  -2.96021
0.669131 0.743145 -2.96021
-0.587785  0.809017  -2.96021
0.587785 0.809017 -2.96021
    -0.5 0.866025 -2.96021
     0.5 0.866025 -2.96021
-0.406737  0.913545  -2.96021
0.406737 0.913545 -2.96021
-0.309017  0.951057  -2.96021
0.309017 0.951057 -2.96021
-0.207912  0.978148  -2.96021
0.207912 0.978148 -2.96021
-0.104528  0.994522  -2.96021
0.104528 0.994522 -2.96021
-1.83697e-16            1     -2.96021
-0.052336  -0.99863  -2.86952
0.052336 -0.99863 -2.86952
-0.156434 -0.987688  -2.86952
 0.156434 -0.987688  -2.86952
-0.258819 -0.965926  -2.86952
 0.258819 -0.965926  -2.86952
-0.358368  -0.93358  -2.86952
0.358368 -0.93358 -2.86952
 -0.45399 -0.891007  -2.86952
  0.45399 -0.891007  -2.86952
-0.544639 -0.838671  -2.86952
 0.544639 -0.838671  -2.86952
 -0.62932 -0.777146  -2.86952
  0.62932 -0.777146  -2.86952
-0.707107 -0.707107  -2.86952
 0.707107 -0.707107  -2.86952
-0.777146  -0.62932  -2.86952
0.777146 -0.62932 -2.86952
-0.838671 -0.544639  -2.86952
 0.838671 -0.544639  -2.86952
-0.891007  -0.45399  -2.86952
0.891007 -0.45399 -2.86952
 -0.93358 -0.358368  -2.86952
  0.93358 -0.358368  -2.86952
-0.965926 -0.258819  -2.86952
 0.965926 -0.258819  -2.86952
-0.987688 -0.156434  -2.86952
 0.987688 -0.156434  -2.86952
 -0.99863 -0.052336  -2.86952
  0.99863 -0.052336  -2.86952
-0.99863 0.052336 -2.86952
 0.99863 0.052336 -2.86952
-0.987688  0.156434  -2.86952
0.987688 0.156434 -2.86952
-0.965926  0.258819  -2.86952
0.965926 0.258819 -2.86952
-0.93358 0.358368 -2.86952
 0.93358 0.358368 -2.86952
-0.891007   0.45399  -2.86952
0.891007  0.45399 -2.86952
-0.838671  0.544639  -2.86952
0.838671 0.544639 -2.86952
-0.777146   0.62932  -2.86952
0.777146  0.62932 -2.86952
-0.707107  0.707107  -2.86952
0.707107 0.707107 -2.86952
-0.62932 0.777146 -2.86952
 0.62932 0.777146 -2.86952
-0.544639  0.838671  -2.86952
0.544639 0.838671 -2.86952
-0.45399 0.891007 -2.86952
 0.45399 0.891007 -2.86952
-0.358368   0.93358  -2.86952
0.358368  0.93358 -2.86952
-0.258819  0.965926  -2.86952
0.258819 0.965926 -2.86952
-0.156434  0.987688  -2.86952
0.156434 0.987688 -2.86952
-0.052336   0.99863  -2.86952
0.052336  0.99863 -2.86952
6.12323e-17          -1    -2.77883
-0.104528 -0.994522  -2.77883
 0.104528 -0.994522  -2.77883
-0.207912 -0.978148  -2.77883
 0.207912 -0.978148  -2.77883
-0.309017 -0.951057  -2.77883
 0.309017 -0.951057  -2.77883
-0.406737 -0.913545  -2.77883
 0.406737 -0.913545  -2.77883
     -0.5 -0.866025  -2.77883
      0.5 -0.866025  -2.77883
-0.587785 -0.809017  -2.77883
 0.587785 -0.809017  -2.77883
-0.669131 -0.743145  -2.77883
 0.669131 -0.743145  -2.77883
-0.743145 -0.669131  -2.77883
 0.743145 -0.669131  -2.77883
-0.809017 -0.587785  -2.77883
 0.809017 -0.587785  -2.77883
-0.866025      -0.5  -2.77883
0.866025     -0.5 -2.77883
-0.913545 -0.406737  -2.77883
 0.913545 -0.406737  -2.77883
-0.951057 -0.309017  -2.77883
 0.951057 -0.309017  -2.77883
-0.978148 -0.207912  -2.77883
 0.978148 -0.207912  -2.77883
-0.994522 -0.104528  -2.77883
 0.994522 -0.104528  -2.77883
          -1 -1.22465e-16     -2.77883
          1 5.55112e-17    -2.77883
-0.994522  0.104528  -2.77883
0.994522 0.104528 -2.77883
-0.978148  0.207912  -2.77883
0.978148 0.207912 -2.77883
-0.951057  0.309017  -2.77883
0.951057 0.309017 -2.77883
-0.913545  0.406737  -2.77883
0.913545 0.406737 -2.77883
-0.866025       0.5  -2.77883
0.866025      0.5 -2.77883
-0.809017  0.587785  -2.77883
0.809017 0.587785 -2.77883
-0.743145  0.669131  -2.77883
0.743145 0.669131 -2.77883
-0.669131  0.743145  -2.77883
0.669131 0.743145 -2.77883
-0.587785  0.809017  -2.77883
0.587785 0.809017 -2.77883
    -0.5 0.866025 -2.77883
     0.5 0.866025 -2.77883
-0.406737  0.913545  -2.77883
0.406737 0.913545 -2.77883
-0.309017  0.951057  -2.77883
0.309017 0.951057 -2.77883
-0.207912  0.978148  -2.77883
0.207912 0.978148 -2.77883
-0.104528  0.994522  -2.77883
0.104528 0.994522 -2.77883
-1.83697e-16            1     -2.77883
-0.052336  -0.99863  -2.68814
0.052336 -0.99863 -2.68814
-0.156434 -0.987688  -2.68814
 0.156434 -0.987688  -2.68814
-0.258819 -0.965926  -2.68814
 0.258819 -0.965926  -2.68814
-0.358368  -0.93358  -2.68814
0.358368 -0.93358 -2.68814
 -0.45399 -0.891007  -2.68814
  0.45399 -0.891007  -2.68814
-0.544639 -0.838671  -2.68814
 0.544639 -0.838671  -2.68814
 -0.62932 -0.777146  -2.68814
  0.62932 -0.777146  -2.68814
-0.707107 -0.707107  -2.68814
 0.707107 -0.707107  -2.68814
-0.777146  -0.62932  -2.68814
0.777146 -0.62932 -2.68814
-0.838671 -0.544639  -2.68814
 0.838671 -0.544639  -2.68814
-0.891007  -0.45399  -2.68814
0.891007 -0.45399 -2.68814
 -0.93358 -0.358368  -2.68814
  0.93358 -0.358368  -2.68814
-0.965926 -0.258819  -2.68814
 0.965926 -0.258819  -2.68814
-0.987688 -0.156434  -2.68814
 0.987688 -0.156434  -2.68814
 -0.99863 -0.052336  -2.68814
  0.99863 -0.052336  -2.68814
-0.99863 0.052336 -2.68814
 0.99863 0.052336 -2.68814
-0.987688  0.156434  -2.68814
0.987688 0.156434 -2.68814
-0.965926  0.258819  -2.68814
0.965926 0.258819 -2.68814
-0.93358 0.358368 -2.68814
 0.93358 0.358368 -2.68814
[...]
POINT_DATA 4260
SCALARS Field double
LOOKUP_TABLE default
-1.33662
-1.65582
-0.916311
-1.95527
-0.412882
-2.17696
0.0640086
-2.33038
0.555083
-2.47791
1.03623
-2.50439
1.42399
-2.36185
1.7929
-2.10094
2.13189
-1.66304
2.3391
-1.10604
2.45471
-0.583206
2.44913
-0.0790858
2.24394
0.388508
1.94264
0.763884
1.58768
1.15889
1.14135
1.59487
0.695268
1.97796
0.241824
2.33185
-0.302609
2.59478
-0.850537
2.64299
-1.36599
2.54047
-1.87116
2.31586
-2.24392
1.94297
-2.46573
1.54959
-2.61559
1.17281
-2.62976
0.743729
-2.51651
0.323575
-2.3456
-0.104483
-2.03426
-0.622215
-1.59449
-1.1338
0.392509
0.928013
-0.0937411
1.40417
-0.52134
1.85176
-0.978501
2.23058
-1.40403
2.44479
-1.79331
2.57005
-2.19141
2.61375
-2.47288
2.5047
-2.59046
2.3148
-2.59976
2.03618
-2.43805
1.59664
-2.14119
1.09552
-1.82749
0.572313
-1.45034
-0.00342552
-1.01768
-0.522172
-0.601787
-0.972398
-0.12175
-1.43062
0.419368
-1.8197
0.923996
-2.12532
1.43137
-2.39064
1.89937
-2.50469
2.21066
-2.45169
2.41526
-2.31557
2.51296
-2.04854
2.44547
-1.68454
2.31524
-1.31795
2.14477
-0.876788
1.86097
-0.365579
1.52993
0.126196
1.14678
0.644023
2.10719
1.85277
2.33996
1.53444
2.50466
1.23229
2.49186
0.922187
2.37025
0.492878
2.1551
0.00196488
1.79544
-0.531939
1.38639
-1.13173
0.9369
-1.6508
0.381288
-2.02561
-0.181225
-2.30002
-0.711027
-2.40336
-1.23451
-2.36827
-1.63559
-2.31498
-1.8998
-2.19953
-2.11135
-2.02419
-2.21261
-1.84067
-2.21426
-1.53544
-2.18051
-1.08091
-2.00985
-0.56323
-1.68517
0.0416952
-1.28853
0.659289
-0.78097
1.14215
-0.219606
1.52923
0.271068
1.82949
0.741361
1.99975
1.18552
2.14635
1.53244
2.27785
1.85325
2.29717
2.12544
2.25061
2.01804
1.88462
2.13582
1.62343
2.26207
1.28863
2.3103
0.88803
2.31174
0.380596
2.20956
-0.116448
1.88748
-0.575865
1.42314
-1.06309
0.867028
-1.49694
0.22413
-1.86072
-0.346932
-2.19293
-0.791134
-2.37226
-1.17824
-2.37017
-1.46913
-2.26608
-1.71579
-2.01967
-2.02894
-1.67911
-2.32067
-1.35072
-2.52791
-0.959234
-2.6445
-0.486866
-2.53477
0.00544644
-2.19402
0.579687
-1.75883
1.18531
-1.24741
1.68163
-0.738333
2.09132
-0.340661
2.38999
0.0407839
2.51138
0.45292
2.5535
0.849311
2.52626
1.29655
2.34977
1.7535
2.09091
0.297756
0.739144
-0.143249
1.13117
-0.596503
1.56341
-1.11844
2.01798
-1.58657
2.36663
-1.95079
2.61783
-2.25657
2.71795
-2.42713
2.57333
-2.47955
2.28851
-2.49921
1.92912
-2.39792
1.49166
-2.14956
1.10034
-1.81234
0.759811
-1.32554
0.354962
-0.741739
-0.0905034
-0.202345
-0.599582
0.320295
-1.21814
0.812767
-1.78838
1.21763
-2.20974
1.63197
-2.4914
2.04967
-2.55321
2.35771
-2.44653
2.57847
-2.32293
2.66903
-2.15845
2.54812
-1.95297
2.32062
-1.74444
2.02634
-1.41225
1.62055
-0.937674
1.18751
-0.424456
0.719514
0.145956
-1.39841
-1.71381
-1.03228
-2.06358
-0.590935
-2.3522
-0.133667
-2.53545
0.407845
-2.64025
0.997459
-2.56418
1.50096
-2.31818
1.93316
-2.01669
2.25287
-1.62511
2.37609
-1.16522
2.40563
-0.710289
2.38739
-0.177404
2.27922
0.418092
2.15772
0.954662
1.99087
1.44622
1.65746
1.84322
1.21126
2.05838
0.678526
2.1907
0.0492735
2.27109
-0.522635
2.23771
-0.981094
2.15112
-1.39216
1.97877
-1.705
1.62768
-1.94804
1.18999
-2.20619
0.71091
-2.38086
0.17226
-2.42903
-0.308853
-2.39579
-0.723656
-2.20406
-1.15802
-1.8808
-1.54602
-2.22857
-2.20657
-2.19484
-2.1933
-2.09405
-2.0842
-1.97096
-1.8452
-1.71486
-1.52956
-1.3097
-1.06395
-0.848264
-0.482724
-0.302411
0.0763249
0.269289
0.621694
0.748366
1.10812
1.1956
1.45033
1.61264
1.74683
1.92119
2.02896
2.17441
2.22993
2.33406
2.40235
2.29615
2.50393
2.13861
2.41961
1.89316
2.21369
1.5276
1.90907
1.14533
1.46937
0.745207
1.00952
0.239152
0.557925
-0.296194
0.0512403
-0.831704
-0.426391
-1.38542
-0.859465
-1.82105
-1.3047
-2.10402
-1.66545
-2.30671
-1.92451
-2.375
-2.15573
-2.33932
-2.29165
-1.35158
-0.963617
-1.71401
-0.618607
-2.0414
-0.225629
-2.37742
0.228229
-2.59235
0.668426
-2.62631
1.15163
-2.51816
1.63698
-2.20079
1.99882
-1.73072
2.27338
-1.26596
2.44479
-0.79823
2.44447
-0.349733
2.36236
0.0258036
2.20257
0.446088
1.88387
0.938163
1.48121
1.41164
1.01384
1.8899
0.449578
2.30662
-0.0869212
2.5293
-0.567333
2.60835
-1.06561
2.55576
-1.51805
2.33045
-1.92618
2.05134
-2.33508
1.75526
-2.61533
1.38112
-2.71962
1.00145
-2.70305
0.608751
-2.50487
0.123494
-2.16475
-0.367738
-1.79571
-0.840318
-1.34753
0.793647
0.382849
1.19487
-0.131125
1.59507
-0.680011
1.91269
-1.23851
2.20742
-1.81763
2.45746
-2.25575
2.56285
-2.48503
2.57654
-2.56827
2.48394
-2.47648
2.21149
-2.28646
1.85498
-2.13655
1.44217
-1.9636
0.921396
-1.72777
0.384309
-1.44558
-0.153823
-1.00161
-0.739319
-0.402574
-1.25138
0.216825
-1.64634
0.845638
-1.97748
1.40482
-2.17892
1.77186
-2.28079
2.02306
-2.3764
2.19837
-2.37657
2.26837
-2.24604
2.33374
-2.02782
2.3843
-1.64634
2.3026
-1.14198
2.12345
-0.643388
1.83781
-0.113659
1.39433
0.430724
0.912478
2.08115
2.24046
1.89555
2.31643
1.63953
2.37089
1.19879
2.37226
0.652956
2.21751
0.0618216
1.97235
-0.558417
1.64352
-1.0529
1.17379
-1.39362
0.666044
-1.68654
0.153197
-1.9128
-0.406305
-2.11101
-0.908791
-2.35052
-1.3373
-2.50438
-1.75491
-2.50386
-2.06648
-2.37829
-2.24248
-2.05052
-2.32779
-1.56519
-2.23634
-1.0736
-1.99287
-0.572026
-1.71967
-0.0972806
-1.38185
0.280054
-0.991734
0.67138
-0.605964
1.11104
-0.129136
1.51796
0.423469
1.91814
0.923547
2.24501
1.38112
2.37495
1.75415
2.38541
1.97457
2.32228
2.15588
1.84531
2.1408
1.58819
2.36062
1.35746
2.50511
1.03595
2.50323
0.664131
2.25533
0.236653
1.87604
-0.296576
1.44374
-0.81713
0.955245
-1.28111
0.519469
-1.72726
0.126213
-2.05181
-0.332309
-2.23853
-0.800609
-2.36018
-1.26585
-2.34765
-1.76099
-2.20785
-2.15235
-2.01381
-2.38832
-1.68099
-2.52212
-1.21185
-2.48968
-0.709402
-2.32669
-0.14926
-2.15097
0.414509
-1.9078
0.880451
-1.58463
1.33226
-1.23079
1.78598
-0.758913
2.15903
-0.194777
2.47888
0.320884
2.67477
0.79782
2.6295
1.21215
2.43793
1.51267
2.16848
1.82311
0.320467
-0.116845
0.870358
-0.526163
1.48278
-0.878304
1.9898
-1.21662
2.37719
-1.62547
2.59883
-1.99832
2.58993
-2.28506
2.47628
-2.51724
2.31331
-2.59282
2.05803
-2.50307
1.79003
-2.32846
1.49404
-2.00925
1.07355
-1.57231
0.59477
-1.12474
0.0714648
-0.616156
-0.534886
-0.0610344
-1.09372
0.455938
-1.54996
0.991713
-1.94892
1.50887
-2.2146
1.8897
-2.3625
2.18572
-2.48077
2.40279
-2.48527
2.4931
-2.353
2.54773
-2.15353
2.5415
-1.83685
2.34618
-1.44829
1.99609
-1.10111
1.50076
-0.716586
0.859999
-0.252265
0.252102
-1.82016
-1.43397
-2.04788
-0.949242
-2.1692
-0.329376
-2.30907
0.345291
-2.4042
0.913391
-2.42583
1.39347
-2.40442
1.77018
-2.23191
1.98616
-1.9041
2.15173
-1.51627
2.29895
-1.02095
2.36445
-0.447414
2.40873
0.0962311
2.39209
0.64844
2.19003
1.17209
1.85123
1.56544
1.39506
1.8937
0.807149
2.15336
0.240446
2.26171
-0.248276
2.28073
-0.723089
2.20103
-1.12694
1.96132
-1.47449
1.67468
-1.83399
1.37764
-2.10166
1.00713
-2.25169
0.617462
-2.36179
0.174119
-2.37557
-0.401026
-2.29934
-0.983197
-2.18856
-1.49169
-1.92784
-2.44962
-2.2858
-2.46066
-2.10619
-2.28142
-1.88497
-1.99223
-1.6328
-1.55987
-1.39737
-1.04556
-1.062
-0.582563
-0.606823
-0.131669
-0.126902
0.300667
0.407042
0.659842
0.947063
1.05579
1.38427
1.50885
1.77566
1.92166
2.10442
2.30318
2.27266
2.57012
2.33591
2.59043
2.2879
2.44645
2.06511
2.20419
1.76446
1.86629
1.40284
1.5521
0.917819
1.25385
0.404117
0.855767
-0.105746
0.408717
-0.642705
-0.0672759
-1.09539
-0.599313
-1.45636
-1.06577
-1.81291
-1.44641
-2.09937
-1.82407
-2.30529
-2.12693
-2.46943
-2.33227
-2.47998
-1.167
-1.63851
-0.680471
-2.10198
-0.222511
-2.4156
0.129249
-2.53931
0.486215
-2.54514
0.892653
-2.38867
1.2876
-2.12271
1.71612
-1.87293
2.11674
-1.5836
2.35374
-1.23275
2.47435
-0.85016
2.48501
-0.329236
2.33024
0.308896
2.09903
0.908359
1.79302
1.44509
1.33886
1.85701
0.830319
2.0728
0.30125
2.22434
-0.286535
2.36801
-0.830194
2.43277
-1.31513
2.44627
-1.80122
2.3512
-2.18839
2.05023
-2.44938
1.65459
-2.63725
1.23335
-2.66905
0.760899
-2.5521
0.320469
-2.36779
-0.108501
-2.0444
-0.62185
-1.59718
-1.13275
0.702264
1.23608
0.0859531
1.58318
-0.547421
1.83542
-1.18966
2.04203
-1.69008
2.17764
-2.00961
2.3376
-2.23429
2.49518
-2.33817
2.51254
-2.37641
2.40673
-2.44522
2.15875
-2.43532
1.72073
-2.27984
1.22391
-2.00599
0.719442
-1.549
0.158004
-0.979151
-0.375856
-0.461145
-0.870823
0.0293879
-1.37607
0.502445
-1.78014
0.921826
-2.05661
1.38164
-2.27416
1.84878
-2.36683
2.17367
-2.34847
2.37128
-2.29717
2.4394
-2.12957
2.35177
-1.83801
2.24576
-1.49202
2.14928
-1.01794
1.95759
-0.433623
1.69027
0.151501
1.31253
0.757175
2.4344
2.23278
2.48546
1.80455
2.42671
1.27123
2.2418
0.712502
2.05982
0.138176
1.90459
-0.322483
1.68075
-0.67241
1.41528
-1.03762
1.06364
-1.39834
0.540126
-1.76762
-0.0400342
-2.17263
-0.603983
-2.45268
-1.15877
-2.53959
-1.58991
-2.50113
-1.89041
-2.30938
-2.14273
-2.02367
-2.26935
-1.74853
-2.25518
-1.39419
-2.16056
-0.933158
-1.91254
-0.447795
-1.53934
0.0850375
-1.1575
0.597619
-0.728978
0.972624
-0.278243
1.29833
0.114822
1.62532
0.533657
1.91207
0.985582
2.21798
1.39727
2.48142
1.82693
2.55093
2.22713
2.46076
2.27206
1.93805
2.48794
1.47467
2.54677
1.0221
2.38281
0.624868
2.12906
0.218166
1.86041
-0.141043
1.55108
-0.485505
1.27161
-0.918423
0.969355
-1.36138
0.512316
-1.77199
-0.0337149
-2.1616
-0.613703
-2.39493
-1.21246
-2.4421
-1.67852
-2.3876
-1.98661
-2.18555
-2.23553
-1.86268
-2.38182
-1.50626
-2.43007
-1.04206
-2.434
-0.478573
-2.29504
0.0821576
-2.01751
0.671778
-1.71711
1.23926
-1.36314
1.6694
-0.969519
2.01638
-0.5929
2.27549
-0.127207
2.3854
0.434828
2.44358
0.975643
2.46257
1.49899
2.36475
1.9431
2.20288
0.201955
0.85119
-0.392645
1.3947
-0.871023
1.83493
-1.29087
2.14379
-1.59431
2.2746
-1.81395
2.36224
-2.05604
2.44833
-2.25478
2.44772
-2.39115
2.3803
-2.50261
2.1857
-2.46873
1.77022
-2.25763
1.25213
-1.94607
0.710679
-1.49084
0.138049
-0.940375
-0.363427
-0.416709
-0.802115
0.126852
-1.26916
0.678258
-1.68131
1.15548
-2.00439
1.62205
-2.28066
2.05504
-2.42257
2.35164
-2.43993
2.56127
-2.42755
2.66144
-2.31411
2.56737
-2.08282
2.36009
-1.79509
2.05791
-1.38024
1.61967
-0.864788
1.15699
-0.366704
0.690796
0.155813
-1.64668
-2.06627
-1.06412
-2.35274
-0.411631
-2.44443
0.141449
-2.39516
0.621452
-2.34328
1.04017
-2.25038
1.37306
-2.11325
1.73646
-1.97716
2.12121
-1.72613
2.39277
-1.33094
2.55622
-0.870425
2.57561
-0.303741
2.39243
0.315108
2.13447
0.851224
1.85016
1.33503
1.47812
1.74299
1.07989
1.99188
0.64289
2.15848
0.102568
2.24653
-0.425424
2.18726
-0.890364
2.06665
-1.33684
1.89438
-1.68415
1.60261
-1.93993
1.26689
-2.18851
0.879953
-2.34949
0.369641
-2.40377
-0.167373
-2.41086
-0.695788
-2.28486
-1.24341
-2.01872
-1.69225
-2.62902
-2.54203
-2.4763
-2.31538
-2.12624
-1.95414
-1.74255
-1.55126
-1.33528
-1.23259
-0.947319
-0.908016
-0.648298
-0.521116
-0.319954
-0.098922
0.0871435
0.431234
0.51599
1.00976
1.01935
1.47979
1.54219
1.86163
1.93909
2.14963
2.23143
2.29506
2.39689
2.39733
2.36237
2.45189
2.21891
2.35172
1.98182
2.14619
1.58771
1.84436
1.13051
1.41276
0.642025
0.980994
0.0923532
0.586195
-0.399422
0.152216
-0.811743
-0.268917
-1.22037
-0.694402
-1.56483
-1.19627
-1.86047
-1.66586
-2.1749
-2.04883
-2.40276
-2.3723
-2.5077
-2.52896
-1.70683
-1.16942
-2.04934
-0.580247
-2.19719
0.0350413
-2.28346
0.591002
-2.30599
0.971764
-2.30259
1.26902
-2.32196
1.53774
-2.21753
1.75356
-1.92771
2.01172
-1.52202
2.28898
-0.981133
2.44696
-0.387439
2.49421
0.123298
2.39476
0.613896
2.07837
1.10299
1.66207
1.52309
1.19727
1.92333
0.640928
2.25398
0.0792365
2.39791
-0.483191
2.43022
-1.10042
2.39227
-1.65052
2.2541
-2.07762
2.10829
-2.41195
1.93432
-2.56439
1.61188
-2.5574
1.18748
-2.5007
0.676178
-2.34789
0.0519344
-2.11508
-0.543845
-1.87028
-1.05176
-1.51946
0.736061
0.146717
1.34419
-0.418259
1.87779
-0.856866
2.19562
-1.20496
2.36274
-1.59516
2.42067
-1.97688
2.3529
-2.31329
2.28486
-2.59761
2.23759
-2.6811
2.11167
-2.54859
1.93128
-2.32355
1.64861
-2.00051
1.16769
-1.62086
0.594939
-1.2554
0.00497827
-0.801614
-0.599556
-0.253408
-1.09411
0.272966
-1.4729
0.787018
-1.83476
1.24232
-2.12237
1.56011
-2.32653
1.84879
-2.48511
2.14051
-2.4812
2.35019
-2.29793
2.50497
-2.02069
2.55242
-1.60641
2.38972
-1.10055
2.10915
-0.615762
1.75996
-0.104054
1.31018
0.41372
0.858722
2.18994
2.52903
1.7813
2.63994
1.38901
2.56984
0.977255
2.35879
0.595403
2.00385
0.184631
1.64923
-0.358245
1.33631
-0.918995
0.989126
-1.41213
0.657072
-1.8372
0.307887
-2.09966
-0.164135
-2.23588
-0.684754
-2.36766
-1.20942
-2.42654
-1.73758
-2.37256
-2.10912
-2.23513
-2.26851
-1.93181
-2.29375
-1.50669
-2.15725
-1.10303
-1.91795
-0.686609
-1.68723
-0.2492
-1.39285
0.163669
-1.02377
0.640557
-0.646471
1.15649
-0.191842
1.57886
0.318001
1.93409
0.787408
2.21012
1.26952
2.34205
1.72896
2.41742
2.05453
2.43403
2.29349
2.24067
2.35872
1.95358
2.30732
1.50214
2.25279
0.892682
2.22851
0.312741
2.11678
-0.154655
1.91642
-0.57095
1.58517
-0.894723
1.07988
-1.16647
0.55722
-1.4921
0.0845101
-1.80143
-0.402349
-2.07315
-0.858391
-2.34753
-1.30328
-2.49429
-1.7829
-2.45037
-2.15147
-2.25655
-2.34719
-1.84885
-2.43941
-1.28348
-2.39781
-0.712447
-2.27367
-0.120749
-2.16124
0.460353
-1.96184
0.945371
-1.64011
1.39893
-1.26798
1.79885
-0.801477
2.05806
-0.27843
2.25975
0.201619
2.41894
0.711289
2.47093
1.24902
2.47386
1.70522
2.38372
2.09818
0.730563
0.247119
1.09831
-0.421596
1.42735
-1.09504
1.72884
-1.62919
2.09194
-2.01398
2.44123
-2.18488
2.60007
-2.216
2.59381
-2.2653
2.4512
-2.29087
2.1664
-2.26921
1.85968
-2.23914
1.52098
-2.09406
1.03923
-1.81046
0.486032
-1.45553
-0.0838221
-0.955232
-0.663743
-0.331557
-1.12261
0.284584
-1.46048
0.902163
-1.79294
1.47249
-2.07338
1.90259
-2.28677
2.26648
-2.46852
2.54835
-2.51169
2.64228
-2.41258
2.5977
-2.26619
2.41895
-2.00604
2.08488
-1.61578
1.73818
-1.16162
1.40632
-0.593822
0.996647
0.0253865
0.543528
-1.53088
-1.10575
-2.00158
-0.784607
-2.41995
-0.397807
-2.71757
0.127064
-2.73048
0.696627
-2.48399
1.28512
-2.17694
1.78415
-1.85776
2.07914
-1.56633
2.28159
-1.34089
2.44452
-1.03689
2.50102
-0.608971
2.48296
-0.147545
2.34294
0.379442
2.00623
0.931697
1.60556
1.39118
1.21175
1.79066
0.779502
2.09286
0.366549
2.20576
-0.0550049
2.22585
-0.561884
2.19306
-1.04229
2.05547
-1.44927
1.86771
-1.83988
1.57732
-2.14396
1.08874
-2.35631
0.521924
-2.52243
-0.0357604
-2.52118
-0.572998
-2.3287
-0.988343
-2.05767
-1.32522
-1.70641
-2.2882
-2.31966
-2.26012
-2.37597
-2.18334
-2.25692
-2.02784
-1.87045
-1.66268
-1.32907
-1.13457
-0.705327
-0.624435
-0.149741
-0.136852
0.198934
0.323922
0.472788
0.730615
0.788356
1.18906
1.13284
1.66667
1.55747
2.01235
1.98593
2.24478
2.25761
2.36723
2.4011
2.34882
2.40262
2.30144
2.17706
2.22156
1.80898
2.00046
1.34868
1.69639
0.807669
1.33429
0.340466
0.879968
-0.0379388
0.431659
-0.448484
-0.0167468
-0.876596
-0.556201
-1.33923
-1.09076
-1.84357
-1.55182
-2.2107
-1.94788
-2.38367
-2.18352
-2.45117
-2.29144
-2.4019
-1.2749
-1.60062
-0.953307
-2.0098
-0.540313
-2.33812
-0.0275221
-2.4863
0.636908
-2.50005
1.31626
-2.35996
1.76455
-2.14565
1.98227
-1.9577
2.04734
-1.6777
2.02968
-1.2501
2.10759
-0.748487
2.27602
-0.163326
2.35071
0.419759
2.29994
0.87835
2.09026
1.2964
1.664
1.70131
1.12844
2.01393
0.507916
2.2712
-0.236452
2.43855
-0.945615
2.441
-1.51311
2.38794
-1.94239
2.30737
-2.17037
2.10434
-2.28375
1.80577
-2.42845
1.39057
-2.5276
0.818559
-2.51899
0.246071
-2.40079
-0.253818
-2.08297
-0.748696
-1.63224
-1.20175
0.561069
1.00031
0.0454406
1.34232
-0.513947
1.74431
-1.09327
2.22003
-1.53917
2.58621
-1.85216
2.76164
-2.15806
2.67527
-2.41108
2.32087
-2.57575
1.94366
-2.65094
1.69489
-2.51316
1.50338
-2.18688
1.32809
-1.82303
1.04881
-1.40951
0.549282
-0.956955
-0.0216823
-0.51936
-0.560243
-0.0160146
-1.11133
0.51762
-1.61999
0.950866
-2.07203
1.33569
-2.46469
1.69961
-2.62861
2.00196
-2.53845
2.30972
-2.32422
2.56029
-2.00884
2.59779
-1.66739
2.46919
-1.36241
2.22535
-0.959103
1.86757
-0.432626
1.5132
0.10734
1.14922
0.656807
2.28286
2.1061
2.35508
1.72585
2.40607
1.27283
2.40664
0.824428
2.38073
0.340366
2.21717
-0.128923
1.76314
-0.61862
1.14745
-1.18544
0.5493
-1.67657
0.0529468
-2.01201
-0.239696
-2.24457
-0.43474
-2.33939
-0.771831
-2.3485
-1.23096
-2.35774
-1.69806
-2.25606
-2.06842
-2.00915
-2.18653
-1.70948
-2.12876
-1.34055
-2.07506
-0.946817
-1.96308
-0.595106
-1.73647
-0.159127
-1.40911
0.394175
-0.909642
0.946205
-0.327237
1.47233
0.173774
1.88953
0.63249
2.10592
1.06664
2.24701
1.44542
2.37172
1.84248
2.40142
2.19153
2.35557
2.22406
1.94524
2.38842
1.54185
2.43512
1.16324
2.34064
0.824377
2.21949
0.381855
2.05405
-0.159759
1.72291
-0.76713
1.28658
-1.3801
0.792974
-1.77132
0.247888
-1.88383
-0.222714
-1.90876
-0.629803
-1.95967
-1.08858
-2.12564
-1.5295
-2.40992
-1.899
-2.47303
-2.20168
-2.13409
-2.33602
-1.58518
-2.34124
-0.967359
-2.35718
-0.38679
-2.32578
0.0792926
-2.19121
0.559961
-1.95559
1.07821
-1.52425
1.53955
-0.957781
1.95515
-0.435667
2.26079
0.0529873
2.38907
0.524701
2.46308
0.952493
2.5038
1.42712
2.41568
1.90407
2.22458
0.334949
0.879795
-0.23133
1.29207
-0.737627
1.66843
-1.20815
2.03873
-1.587
2.31709
-1.92413
2.52091
-2.30884
2.59419
-2.59047
2.46244
-2.63746
2.25474
-2.47597
2.02166
-2.12838
1.68689
-1.76438
1.28406
-1.60038
0.791442
-1.52137
0.178381
-1.2424
-0.384698
-0.715348
-0.822698
-0.0586973
-1.21613
0.658934
-1.55608
1.27665
-1.8924
1.78543
-2.27644
2.15668
-2.54154
2.36239
-2.60123
2.51644
-2.52598
2.59233
-2.30953
2.48586
-2.02235
2.27056
-1.75649
1.98033
-1.39351
1.59956
-0.886615
1.22216
-0.334037
0.808902
0.256216
-1.44433
-1.8323
-1.01976
-2.2127
-0.55488
-2.44852
-0.0876207
-2.51528
0.465153
-2.52808
1.04955
-2.45996
1.51174
-2.29238
1.8834
-2.03442
2.17982
-1.56906
2.36451
-0.940007
2.51493
-0.379103
2.5787
0.0404081
2.42091
0.351432
2.11904
0.686567
1.75376
1.19189
1.34807
1.56213
1.01487
1.80005
0.705935
2.15035
0.262348
2.40958
-0.269004
2.40267
-0.822026
2.24743
-1.36544
1.99939
-1.75615
1.63817
-2.00279
1.23987
-2.23821
0.782587
-2.41396
0.226569
-2.48579
-0.285025
-2.46322
-0.712863
-2.24692
-1.13551
-1.87843
-1.51652
-2.37289
-2.34067
-2.33427
-2.30623
-2.17836
-2.14133
-1.94295
-1.80524
-1.56896
-1.39053
-1.10878
-0.893216
-0.685026
-0.381732
-0.219386
0.0568041
0.330921
0.531308
0.876979
1.05878
1.39077
1.51789
1.76713
1.89597
1.88014
2.13545
1.85586
2.18548
1.86326
2.20807
1.77276
2.27162
1.71808
2.28138
1.73619
2.22237
1.61302
2.0165
1.30551
1.58897
0.837538
1.09586
0.254785
0.62988
-0.272875
0.142691
-0.734529
-0.325174
-1.22023
-0.803261
-1.65779
-1.3432
-2.0126
-1.79201
-2.2917
-2.07569
-2.39589
-2.26918
-2.3739
-2.35437
-1.48228
-1.04393
-1.89518
-0.653978
-2.22611
-0.198025
-2.46998
0.345266
-2.5176
0.857338
-2.40849
1.33795
-2.28333
1.75013
-2.09234
2.02681
-1.8004
2.26414
-1.43239
2.45951
-0.916216
2.47179
-0.328961
2.29679
0.155891
1.93805
0.573466
1.43796
0.967559
1.07554
1.33404
0.789928
1.76709
0.387317
2.20251
0.0358493
2.46121
-0.416541
2.56155
-1.01738
2.53354
-1.58327
2.37098
-2.01195
2.1876
-2.31495
1.96145
-2.45688
1.56435
-2.51557
1.06257
-2.56711
0.522506
-2.47856
-0.0461804
-2.21101
-0.527215
-1.85461
-0.93964
-1.40677
0.825281
0.313151
1.26007
-0.312053
1.65107
-0.883032
1.96985
-1.32689
2.29101
-1.71349
2.5603
-2.01738
2.62928
-2.27667
2.54758
-2.53625
2.36469
-2.63868
2.06169
-2.52412
1.72618
-2.28912
1.34551
-1.94614
0.811539
-1.57501
0.212151
-1.26089
-0.294044
-0.873525
-0.761429
-0.362014
-1.2309
0.177881
-1.51202
0.738279
-1.77883
1.24157
-2.11152
1.5939
-2.42477
1.91003
-2.61435
2.2278
-2.51588
2.44562
-2.20241
2.56548
-1.86867
2.53765
-1.51584
2.30216
-1.13486
2.00573
-0.727011
1.71328
-0.188386
1.3421
0.414401
0.915061
2.23671
2.44044
1.89582
2.44196
1.47956
2.38393
1.00052
2.32556
0.572065
2.1769
0.158665
1.94332
-0.368587
1.57833
-0.932568
1.02505
-1.45379
0.442023
-1.9018
-0.0672517
-2.14932
-0.543316
-2.23159
-0.945584
-2.30321
-1.31033
-2.33304
-1.77118
-2.29293
-2.19332
-2.19685
-2.36431
-1.9405
-2.21072
-1.55695
-1.92159
-1.18698
-1.81348
-0.787059
-1.83937
-0.330162
-1.69637
0.144877
-1.27756
0.701725
-0.697001
1.26807
-0.0431303
1.6765
0.519843
1.9662
0.894078
2.18029
1.23807
2.29977
1.62323
2.40553
1.97138
2.44476
2.27466
2.15191
2.37216
1.79376
2.3919
1.3676
2.35574
0.891037
2.31344
0.482776
2.17142
0.113179
1.93571
-0.363924