# vtk DataFile Version 3.1
vtk output
ASCII
DATASET POLYDATA
POINTS 4260 FLOAT
2.83277e-16          -1    -3.14159
-0.104528 -0.994522  -3.14159
 0.104528 -0.994522  -3.14159
-0.207912 -0.978148  -3.14159
 0.207912 -0.978148  -3.14159
-0.309017 -0.951057  -3.14159
 0.309017 -0.951057  -3.14159
-0.406737 -0.913545  -3.14159
 0.406737 -0.913545  -3.14159
     -0.5 -0.866025  -3.14159
      0.5 -0.866025  -3.14159
-0.587785 -0.809017  -3.14159
 0.587785 -0.809017  -3.14159
-0.669131 -0.743145  -3.14159
 0.669131 -0.743145  -3.14159
-0.743145 -0.669131  -3.14159
 0.743145 -0.669131  -3.14159
-0.809017 -0.587785  -3.14159
 0.809017 -0.587785  -3.14159
-0.866025      -0.5  -3.14159
0.866025     -0.5 -3.14159
-0.913545 -0.406737  -3.14159
 0.913545 -0.406737  -3.14159
-0.951057 -0.309017  -3.14159
 0.951057 -0.309017  -3.14159
-0.978148 -0.207912  -3.14159
 0.978148 -0.207912  -3.14159
-0.994522 -0.104528  -3.14159
 0.994522 -0.104528  -3.14159
          -1 -5.66554e-16     -3.14159
       1        0 -3.14159
-0.994522  0.104528  -3.14159
0.994522 0.104528 -3.14159
-0.978148  0.207912  -3.14159
0.978148 0.207912 -3.14159
-0.951057  0.309017  -3.14159
0.951057 0.309017 -3.14159
-0.913545  0.406737  -3.14159
0.913545 0.406737 -3.14159
-0.866025       0.5  -3.14159
0.866025      0.5 -3.14159
-0.809017  0.587785  -3.14159
0.809017 0.587785 -3.14159
-0.743145  0.669131  -3.14159
0.743145 0.669131 -3.14159
-0.669131  0.743145  -3.14159
0.669131 0.743145 -3.14159
-0.587785  0.809017  -3.14159
0.587785 0.809017 -3.14159
    -0.5 0.866025 -3.14159
     0.5 0.866025 -3.14159
-0.406737  0.913545  -3.14159
0.406737 0.913545 -3.14159
-0.309017  0.951057  -3.14159
0.309017 0.951057 -3.14159
-0.207912  0.978148  -3.14159
0.207912 0.978148 -3.14159
-0.104528  0.994522  -3.14159
0.104528 0.994522 -3.14159
-1.83697e-16            1     -3.14159
-0.052336  -0.99863   -3.0509
0.052336 -0.99863  -3.0509
-0.156434 -0.987688   -3.0509
 0.156434 -0.987688   -3.0509
-0.258819 -0.965926   -3.0509
 0.258819 -0.965926   -3.0509
-0.358368  -0.93358   -3.0509
0.358368 -0.93358  -3.0509
 -0.45399 -0.891007   -3.0509
  0.45399 -0.891007   -3.0509
-0.544639 -0.838671   -3.0509
 0.544639 -0.838671   -3.0509
 -0.62932 -0.777146   -3.0509
  0.62932 -0.777146   -3.0509
-0.707107 -0.707107   -3.0509
 0.707107 -0.707107   -3.0509
-0.777146  -0.62932   -3.0509
0.777146 -0.62932  -3.0509
-0.838671 -0.544639   -3.0509
 0.838671 -0.544639   -3.0509
-0.891007  -0.45399   -3.0509
0.891007 -0.45399  -3.0509
 -0.93358 -0.358368   -3.0509
  0.93358 -0.358368   -3.0509
-0.965926 -0.258819   -3.0509
 0.965926 -0.258819   -3.0509
-0.987688 -0.156434   -3.0509
 0.987688 -0.156434   -3.0509
 -0.99863 -0.052336   -3.0509
  0.99863 -0.052336   -3.0509
-0.99863 0.052336  -3.0509
 0.99863 0.052336  -3.0509
-0.987688  0.156434   -3.0509
0.987688 0.156434  -3.0509
-0.965926  0.258819   -3.0509
0.965926 0.258819  -3.0509
-0.93358 0.358368  -3.0509
 0.93358 0.358368  -3.0509
-0.891007   0.45399   -3.0509
0.891007  0.45399  -3.0509
-0.838671  0.544639   -3.0509
0.838671 0.544639  -3.0509
-0.777146   0.62932   -3.0509
0.777146  0.62932  -3.0509
-0.707107  0.707107   -3.0509
0.707107 0.707107  -3.0509
-0.62932 0.777146  -3.0509
 0.62932 0.777146  -3.0509
-0.544639  0.838671   -3.0509
0.544639 0.838671  -3.0509
-0.45399 0.891007  -3.0509
 0.45399 0.891007  -3.0509
-0.358368   0.93358   -3.0509
0.358368  0.93358  -3.0509
-0.258819  0.965926   -3.0509
0.258819 0.965926  -3.0509
-0.156434  0.987688   -3.0509
0.156434 0.987688  -3.0509
-0.052336   0.99863   -3.0509
0.052336  0.99863  -3.0509
6.12323e-17          -1    -2.96021
-0.104528 -0.994522  -2.96021
 0.104528 -0.994522  -2.96021
-0.207912 -0.978148  -2.96021
 0.207912 -0.978148  -2.96021
-0.309017 -0.951057  -2.96021
 0.309017 -0.951057  -2.96021
-0.406737 -0.913545  -2.96021
 0.406737 -0.913545  -2.96021
     -0.5 -0.866025  -2.96021
      0.5 -0.866025  -2.96021
-0.587785 -0.809017  -2.96021
 0.587785 -0.809017  -2.96021
-0.669131 -0.743145  -2.96021
 0.669131 -0.743145  -2.96021
-0.743145 -0.669131  -2.96021
 0.743145 -0.669131  -2.96021
-0.809017 -0.587785  -2.96021
 0.809017 -0.587785  -2.96021
-0.866025      -0.5  -2.96021
0.866025     -0.5 -2.96021
-0.913545 -0.406737  -2.96021
 0.913545 -0.406737  -2.96021
-0.951057 -0.309017  -2.96021
 0.951057 -0.309017  -2.96021
-0.978148 -0.207912  -2.96021
 0.978148 -0.207912  -2.96021
-0.994522 -0.104528  -2.96021
 0.994522 -0.104528  -2.96021
          -1 -5.66554e-16     -2.96021
          1 2.77556e-17    -2.96021
-0.994522  0.104528  -2.96021
0.994522 0.104528 -2.96021
-0.978148  0.207912  -2.96021
0.978148 0.207912 -2.96021
-0.951057  0.309017  -2.96021
0.951057 0.309017 -2.96021
-0.913545  0.406737  -2.96021
0.913545 0.406737 -2.96021
-0.866025       0.5  -2.96021
0.866025      0.5 -2.96021
-0.809017  0.587785  -2.96021
0.809017 0.587785 -2.96021
-0.743145  0.669131  -2.96021
0.743145 0.669131 -2.96021
-0.669131  0.743145  -2.96021
0.669131 0.743145 -2.96021
-0.587785  0.809017  -2.96021
0.587785 0.809017 -2.96021
    -0.5 0.866025 -2.96021
     0.5 0.866025 -2.96021
-0.406737  0.913545  -2.96021
0.406737 0.913545 -2.96021
-0.309017  0.951057  -2.96021
0.309017 0.951057 -2.96021
-0.207912  0.978148  -2.96021
0.207912 0.978148 -2.96021
-0.104528  0.994522  -2.96021
0.104528 0.994522 -2.96021
-1.83697e-16            1     -2.96021
-0.052336  -0.99863  -2.86952
0.052336 -0.99863 -2.86952
-0.156434 -0.987688  -2.86952
 0.156434 -0.987688  -2.86952
-0.258819 -0.965926  -2.86952
 0.258819 -0.965926  -2.86952
-0.358368  -0.93358  -2.86952
0.358368 -0.93358 -2.86952
 -0.45399 -0.891007  -2.86952
  0.45399 -0.891007  -2.86952
-0.544639 -0.838671  -2.86952
 0.544639 -0.838671  -2.86952
 -0.62932 -0.777146  -2.86952
  0.62932 -0.777146  -2.86952
-0.707107 -0.707107  -2.86952
 0.707107 -0.707107  -2.86952
-0.777146  -0.62932  -2.86952
0.777146 -0.62932 -2.86952
-0.838671 -0.544639  -2.86952
 0.838671 -0.544639  -2.86952
-0.891007  -0.45399  -2.86952
0.891007 -0.45399 -2.86952
 -0.93358 -0.358368  -2.86952
  0.93358 -0.358368  -2.86952
-0.965926 -0.258819  -2.86952
 0.965926 -0.258819  -2.86952
-0.987688 -0.156434  -2.86952
 0.987688 -0.156434  -2.86952
 -0.99863 -0.052336  -2.86952
  0.99863 -0.052336  -2.86952
-0.99863 0.052336 -2.86952
 0.99863 0.052336 -2.86952
-0.987688  0.156434  -2.86952
0.987688 0.156434 -2.86952
-0.965926  0.258819  -2.86952
0.965926 0.258819 -2.86952
-0.93358 0.358368 -2.86952
 0.93358 0.358368 -2.86952
-0.891007   0.45399  -2.86952
0.891007  0.45399 -2.86952
-0.838671  0.544639  -2.86952
0.838671 0.544639 -2.86952
-0.777146   0.62932  -2.86952
0.777146  0.62932 -2.86952
-0.707107  0.707107  -2.86952
0.707107 0.707107 -2.86952
-0.62932 0.777146 -2.86952
 0.62932 0.777146 -2.86952
-0.544639  0.838671  -2.86952
0.544639 0.838671 -2.86952
-0.45399 0.891007 -2.86952
 0.45399 0.891007 -2.86952
-0.358368   0.93358  -2.86952
0.358368  0.93358 -2.86952
-0.258819  0.965926  -2.86952
0.258819 0.965926 -2.86952
-0.156434  0.987688  -2.86952
0.156434 0.987688 -2.86952
-0.052336   0.99863  -2.86952
0.052336  0.99863 -2.86952
6.12323e-17          -1    -2.77883
-0.104528 -0.994522  -2.77883
 0.104528 -0.994522  -2.77883
-0.207912 -0.978148  -2.77883
 0.207912 -0.978148  -2.77883
-0.309017 -0.951057  -2.77883
 0.309017 -0.951057  -2.77883
-0.406737 -0.913545  -2.77883
 0.406737 -0.913545  -2.77883
     -0.5 -0.866025  -2.77883
      0.5 -0.866025  -2.77883
-0.587785 -0.809017  -2.77883
 0.587785 -0.809017  -2.77883
-0.669131 -0.743145  -2.77883
 0.669131 -0.743145  -2.77883
-0.743145 -0.669131  -2.77883
 0.743145 -0.669131  -2.77883
-0.809017 -0.587785  -2.77883
 0.809017 -0.587785  -2.77883
-0.866025      -0.5  -2.77883
0.866025     -0.5 -2.77883
-0.913545 -0.406737  -2.77883
 0.913545 -0.406737  -2.77883
-0.951057 -0.309017  -2.77883
 0.951057 -0.309017  -2.77883
-0.978148 -0.207912  -2.77883
 0.978148 -0.207912  -2.77883
-0.994522 -0.104528  -2.77883
 0.994522 -0.104528  -2.77883
          -1 -1.22465e-16     -2.77883
          1 5.55112e-17    -2.77883
-0.994522  0.104528  -2.77883
0.994522 0.104528 -2.77883
-0.978148  0.207912  -2.77883
0.978148 0.207912 -2.77883
-0.951057  0.309017  -2.77883
0.951057 0.309017 -2.77883
-0.913545  0.406737  -2.77883
0.913545 0.406737 -2.77883
-0.866025       0.5  -2.77883
0.866025      0.5 -2.77883
-0.809017  0.587785  -2.77883
0.809017 0.587785 -2.77883
-0.743145  0.669131  -2.77883
0.743145 0.669131 -2.77883
-0.669131  0.743145  -2.77883
0.669131 0.743145 -2.77883
-0.587785  0.809017  -2.77883
0.587785 0.809017 -2.77883
    -0.5 0.866025 -2.77883
     0.5 0.866025 -2.77883
-0.406737  0.913545  -2.77883
0.406737 0.913545 -2.77883
-0.309017  0.951057  -2.77883
0.309017 0.951057 -2.77883
-0.207912  0.978148  -2.77883
0.207912 0.978148 -2.77883
-0.104528  0.994522  -2.77883
0.104528 0.994522 -2.77883
-1.83697e-16            1     -2.77883
-0.052336  -0.99863  -2.68814
0.052336 -0.99863 -2.68814
-0.156434 -0.987688  -2.68814
 0.156434 -0.987688  -2.68814
-0.258819 -0.965926  -2.68814
 0.258819 -0.965926  -2.68814
-0.358368  -0.93358  -2.68814
0.358368 -0.93358 -2.68814
 -0.45399 -0.891007  -2.68814
  0.45399 -0.891007  -2.68814
-0.544639 -0.838671  -2.68814
 0.544639 -0.838671  -2.68814
 -0.62932 -0.777146  -2.68814
  0.62932 -0.777146  -2.68814
-0.707107 -0.707107  -2.68814
 0.707107 -0.707107  -2.68814
-0.777146  -0.62932  -2.68814
0.777146 -0.62932 -2.68814
-0.838671 -0.544639  -2.68814
 0.838671 -0.544639  -2.68814
-0.891007  -0.45399  -2.68814
0.891007 -0.45399 -2.68814
 -0.93358 -0.358368  -2.68814
  0.93358 -0.358368  -2.68814
-0.965926 -0.258819  -2.68814
 0.965926 -0.258819  -2.68814
-0.987688 -0.156434  -2.68814
 0.987688 -0.156434  -2.68814
 -0.99863 -0.052336  -2.68814
  0.99863 -0.052336  -2.68814
-0.99863 0.052336 -2.68814
 0.99863 0.052336 -2.68814
-0.987688  0.156434  -2.68814
0.987688 0.156434 -2.68814
-0.965926  0.258819  -2.68814
0.965926 0.258819 -2.68814
-0.93358 0.358368 -2.68814
 0.93358 0.358368 -2.68814
[...]
POINT_DATA 4260
SCALARS Field double
LOOKUP_TABLE default
-0.515066
-0.935325
0.0230455
-1.352
0.509851
-1.7887
0.958085
-2.06876
1.461
-2.28771
1.83386
-2.45851
2.09041
-2.41868
2.3408
-2.30331
2.42413
-2.17106
2.37445
-1.88325
2.31365
-1.56217
2.08687
-1.22889
1.73454
-0.713983
1.38861
-0.147894
0.909051
0.393384
0.353862
1.00422
-0.129089
1.50287
-0.667955
1.81895
-1.19962
2.11033
-1.58091
2.28162
-1.95306
2.32327
-2.26938
2.3998
-2.4005
2.37462
-2.49329
2.18513
-2.50047
1.97237
-2.29548
1.62323
-2.04071
1.13024
-1.71876
0.68757
-1.23821
0.204269
-0.784798
-0.341092
-2.15427
-1.94358
-2.35046
-1.68367
-2.37313
-1.25508
-2.33725
-0.823774
-2.26976
-0.373106
-2.01241
0.193773
-1.69719
0.692043
-1.37993
1.129
-0.926888
1.60262
-0.47345
1.93788
-0.0546207
2.15627
0.492922
2.36844
1.04387
2.40783
1.53293
2.30107
2.05927
2.16492
2.43329
1.84724
2.56849
1.40067
2.6122
0.973444
2.4788
0.439808
2.19293
-0.137016
1.96564
-0.617041
1.69833
-1.1426
1.34127
-1.65956
1.02115
-2.02113
0.597804
-2.35176
0.0443874
-2.58626
-0.444334
-2.59207
-0.9416
-2.53551
-1.44866
-2.40366
-1.79437
-2.10023
-2.40926
-2.15594
-2.48866
-1.85993
-2.53539
-1.56009
-2.49837
-1.10508
-2.24603
-0.630562
-1.93829
-0.196846
-1.55862
0.320712
-1.01438
0.774003
-0.494471
1.11884
0.00790125
1.52216
0.593352
1.88042
1.08884
2.16303
1.51154
2.50066
1.95825
2.71448
2.24285
2.70097
2.37458
2.5721
2.46116
2.21238
2.35074
1.64604
2.09872
1.12072
1.84884
0.597152
1.46026
0.0788431
0.976416
-0.286769
0.52392
-0.658338
-0.0368987
-1.10413
-0.634327
-1.46651
-1.10138
-1.83103
-1.55348
-2.18564
-1.93294
-2.33809
-2.1234
-2.4029
-2.29928
-2.43499
-0.9451
-1.42211
-0.511528
-1.88973
0.0270392
-2.19664
0.541995
-2.46583
0.982711
-2.6364
1.47606
-2.57708
1.86275
-2.45343
2.07743
-2.25171
2.26877
-1.87262
2.33474
-1.48787
2.27617
-1.06959
2.27854
-0.50328
2.21947
0.0375979
2.02667
0.556635
1.80182
1.13287
1.38433
1.57023
0.746398
1.88101
0.10923
2.18235
-0.548775
2.32566
-1.17072
2.35316
-1.55124
2.37916
-1.82035
2.23061
-2.06232
1.93243
-2.16854
1.61349
-2.27576
1.15015
-2.39678
0.626462
-2.33031
0.202929
-2.16459
-0.260654
-1.93861
-0.733198
-1.53024
-1.10572
0.699561
1.18061
0.259911
1.57802
-0.275688
1.86076
-0.837825
2.18249
-1.26407
2.4033
-1.67778
2.45768
-2.02755
2.47293
-2.19115
2.31756
-2.33169
1.97691
-2.41615
1.65288
-2.31416
1.27349
-2.16673
0.832406
-1.92849
0.481111
-1.48587
0.0671163
-1.02453
-0.474855
-0.550191
-0.985268
0.0202055
-1.53581
0.508036
-2.07985
0.944118
-2.38041
1.44824
-2.51828
1.85127
-2.5464
2.1594
-2.36645
2.45324
-2.16297
2.54548
-2.00559
2.46889
-1.72623
2.36756
-1.40709
2.12027
-1.05361
1.78959
-0.512206
1.49812
0.0540016
1.07444
0.546886
2.31994
2.13569
2.33807
1.81211
2.36626
1.48255
2.30062
1.0188
2.11093
0.490139
1.94192
0.0470912
1.65261
-0.450484
1.19778
-0.960844
0.746632
-1.35484
0.215533
-1.77076
-0.379369
-2.142
-0.837575
-2.31081
-1.26092
-2.40728
-1.69097
-2.39096
-1.9869
-2.15827
-2.2721
-1.8945
-2.55578
-1.58718
-2.63116
-1.12438
-2.57114
-0.661395
-2.39585
-0.164959
-1.97983
0.462708
-1.51206
1.01956
-1.10169
1.48848
-0.634065
1.94874
-0.226358
2.22997
0.120465
2.38133
0.598767
2.54223
1.0917
2.56058
1.52464
2.45654
1.99334
2.32373
2.32713
2.07722
2.56243
1.72289
2.60734
1.26382
2.49483
0.881775
2.35982
0.46506
2.06483
-0.023658
1.66046
-0.433436
1.27743
-0.882902
0.765413
-1.38845
0.172072
-1.76203
-0.354041
-2.09181
-0.928213
-2.39012
-1.46942
-2.49332
-1.82081
-2.5266
-2.12351
-2.52799
-2.34506
-2.33189
-2.37484
-2.04145
-2.37277
-1.68068
-2.29277
-1.10595
-1.99906
-0.48616
-1.64458
0.0694221
-1.21311
0.647031
-0.628534
1.08679
-0.100219
1.35788
0.369584
1.65696
0.886991
1.9065
1.30018
2.08507
1.65181
2.3261
2.0492
2.46003
2.30086
2.40441
0.79845
1.30385
0.200747
1.71718
-0.297053
2.13396
-0.786079
2.38295
-1.27935
2.4947
-1.60892
2.59248
-1.89317
2.52043
-2.16743
2.31022
-2.27545
2.08001
-2.33685
1.67746
-2.38303
1.15673
-2.25427
0.673277
-2.07118
0.111104
-1.86976
-0.459819
-1.49259
-0.898934
-1.05816
-1.35669
-0.602175
-1.79297
0.0200206
-2.0731
0.653262
-2.32674
1.20368
-2.48625
1.75934
-2.41281
2.14232
-2.27005
2.29285
-2.05088
2.38719
-1.6725
2.35406
-1.31795
2.20779
-0.955294
2.13127
-0.456838
1.99369
0.0213358
1.72337
0.494862
1.44632
1.03899
-0.945384
-1.36366
-0.393537
-1.74943
0.109233
-2.12168
0.569992
-2.31101
1.08784
-2.42699
1.49121
-2.49388
1.80491
-2.35125
2.14003
-2.12781
2.32399
-1.87736
2.3718
-1.47009
2.38956
-1.05479
2.21902
-0.686638
1.91071
-0.21713
1.61167
0.23508
1.18984
0.641155
0.695548
1.15836
0.255072
1.64946
-0.281425
2.04071
-0.85709
2.43477
-1.31421
2.65576
-1.76562
2.63208
-2.14055
2.52183
-2.30772
2.24366
-2.43505
1.82223
-2.50333
1.47146
-2.39997
1.09952
-2.27183
0.662505
-2.0625
0.289757
-1.64421
-0.161001
-1.19388
-0.720937
-2.34658
-2.20735
-2.44703
-1.99365
-2.3655
-1.59773
-2.23796
-1.19959
-2.10308
-0.787037
-1.79651
-0.252466
-1.42865
0.238729
-1.03302
0.708037
-0.472406
1.2516
0.092027
1.67608
0.576803
1.97944
1.09749
2.25934
1.51158
2.35536
1.78492
2.31344
2.08909
2.26572
2.31592
2.05678
2.42655
1.7154
2.55347
1.35857
2.53733
0.843873
2.30697
0.245216
2.00829
-0.267514
1.54586
-0.808416
0.940993
-1.31842
0.42189
-1.67609
-0.0749077
-2.0429
-0.564593
-2.37318
-0.905508
-2.51943
-1.25244
-2.60295
-1.66783
-2.56404
-1.98795
-2.29256
-2.30964
-1.93543
-2.47892
-1.51722
-2.58283
-1.13465
-2.59359
-0.662634
-2.40657
-0.229016
-2.19037
0.146294
-1.91057
0.636661
-1.44052
1.11957
-0.942508
1.53281
-0.409563
1.98598
0.23302
2.30985
0.778943
2.44017
1.22906
2.53228
1.69277
2.48584
2.01573
2.29236
2.23287
2.12465
2.44869
1.85828
2.47802
1.43966
2.33423
1.01094
2.13807
0.458823
1.76173
-0.213045
1.28783
-0.780616
0.876294
-1.29208
0.38819
-1.73465
-0.140439
-1.94313
-0.592608
-2.07038
-1.10963
-2.20524
-1.61238
-2.22937
-1.92813
-2.2656
-2.17624
-2.31706
-0.551671
-1.11644
-0.0134745
-1.62793
0.59218
-1.94828
1.08949
-2.2412
1.42033
-2.48261
1.75143
-2.54512
1.9901
-2.56159
2.12573
-2.47105
2.31555
-2.14406
2.41372
-1.75972
2.35068
-1.32847
2.25839
-0.775218
2.01475
-0.283458
1.60762
0.178884
1.22816
0.737852
0.784152
1.22845
0.252588
1.65384
-0.21086
2.08514
-0.728651
2.32312
-1.32235
2.39107
-1.79436
2.42791
-2.2043
2.31063
-2.52799
2.10085
-2.57335
1.91764
-2.46915
1.5845
-2.30265
1.12537
-1.98542
0.67501
-1.69199
0.125029
-1.47539
-0.422372
-1.15259
-0.798905
1.04035
1.57252
0.593534
2.0141
0.10395
2.27422
-0.39591
2.47563
-0.7987
2.49898
-1.26326
2.34187
-1.72983
2.20066
-2.02866
1.98024
-2.26967
1.6507
-2.39785
1.35843
-2.3054
0.972799
-2.18257
0.46435
-2.02189
0.0130214
-1.70561
-0.469803
-1.37274
-0.990825
-0.971001
-1.37738
-0.389346
-1.74707
0.171721
-2.13548
0.687067
-2.37521
1.22583
-2.55891
1.61199
-2.68201
1.89503
-2.54917
2.21538
-2.26628
2.41737
-1.89433
2.5104
-1.33635
2.56978
-0.788211
2.4077
-0.348308
2.07075
0.118861
1.72812
0.514135
1.2893
0.841856
2.40078
2.23467
2.43502
1.99421
2.45662
1.7976
2.31645
1.46314
1.98045
1.00169
1.63238
0.539738
1.19057
-0.0383536
0.656093
-0.636064
0.206341
-1.07658
-0.271344
-1.49181
-0.804277
-1.85426
-1.22103
-2.06079
-1.61977
-2.27037
-2.01094
-2.4215
-2.22051
-2.35109
-2.36468
-2.18605
-2.48445
-1.89649
-2.43014
-1.40653
-2.32293
-0.933089
-2.18914
-0.483061
-1.85555
0.0527909
-1.43156
0.531179
-0.962034
1.00064
-0.325338
1.56201
0.298644
2.00466
0.805115
2.30081
1.30046
2.52576
1.65009
2.52341
1.84038
2.37662
2.0737
2.26543
2.05648
1.79894
2.35881
1.4574
2.53902
0.991205
2.59764
0.563856
2.61392
0.0764365
2.40363
-0.475469
2.00826
-0.911171
1.5939
-1.33843
1.06385
-1.78292
0.498725
-2.07581
0.0359172
-2.31854
-0.48936
-2.52258
-1.04915
-2.51449
-1.5036
-2.41374
-1.96028
-2.26967
-2.3236
-1.94734
-2.43387
-1.58727
-2.44959
-1.23636
-2.3704
-0.740545
-2.12048
-0.22242
-1.87968
0.270742
-1.60105
0.870168
-1.14001
1.41409
-0.644475
1.81494
-0.105178
2.18414
0.532014
2.3763
1.03483
2.35941
1.39233
2.32694
1.72045
2.21025
1.89805
2.01195
0.306493
0.821113
-0.264042
1.29884
-0.721762
1.83343
-1.16932
2.22373
-1.61566
2.45543
-1.8853
2.62156
-2.09659
2.57002
-2.29434
2.36815
-2.33496
2.17863
-2.34115
1.86808
-2.33198
1.46683
-2.12798
1.07815
-1.83732
0.539879
-1.50413
-0.0853594
-1.00218
-0.619095
-0.491338
-1.15469
-0.0384303
-1.61603
0.498303
-1.88105
0.994769
-2.13132
1.41014
-2.35137
1.88431
-2.41664
2.2642
-2.45063
2.47141
-2.37408
2.62628
-2.05036
2.58971
-1.66219
2.33062
-1.23172
2.03899
-0.708243
1.64646
-0.294371
1.1699
0.0431891
0.807261
0.450912
-1.37674
-1.75402
-0.851445
-2.09201
-0.344707
-2.39884
0.155913
-2.48788
0.735996
-2.46388
1.19638
-2.37091
1.54022
-2.08933
1.88446
-1.78523
2.08743
-1.52054
2.19799
-1.138
2.33339
-0.739031
2.30963
-0.342327
2.12797
0.200044
1.89596
0.730049
1.47865
1.16336
0.962308
1.61916
0.520892
1.96432
0.0280528
2.17116
-0.479016
2.40727
-0.895604
2.54698
-1.3825
2.52749
-1.87466
2.47046
-2.19903
2.2313
-2.45707
1.77522
-2.57985
1.29331
-2.45854
0.722053
-2.29404
0.0856309
-2.09942
-0.406987
-1.79118
-0.845991
-1.53316
-1.26735
-2.41751
-2.34328
-2.48823
-2.22195
-2.38581
-1.91217
-2.20108
-1.56535
-1.94231
-1.16853
-1.46041
-0.635567
-0.924106
-0.155326
-0.434168
0.290952
0.111402
0.825303
0.572615
1.28768
0.931019
1.68808
1.36787
2.1029
1.76548
2.32751
2.05946
2.37093
2.35804
2.36209
2.50157
2.17753
2.4478
1.88884
2.37898
1.63101
2.21026
1.23819
1.9248
0.733126
1.67109
0.238031
1.30319
-0.36997
0.766161
-0.991485
0.229673
-1.4434
-0.378465
-1.84087
-1.02821
-2.13628
-1.49868
-2.23189
-1.87055
-2.31934
-2.17579
-2.38698
-2.27673
-2.32457
-1.98292
-1.5952
-2.25402
-1.23046
-2.51409
-0.900458
-2.67515
-0.414094
-2.58616
0.118262
-2.41344
0.630574
-2.15866
1.21184
-1.73191
1.67277
-1.30305
1.94694
-0.837472
2.20323
-0.217558
2.35619
0.372191
2.39554
0.9147
2.46763
1.47538
2.41284
1.86151
2.15941
2.10433
1.86045
2.34118
1.43252
2.43093
0.897691
2.40799
0.458866
2.36912
0.0078843
2.13094
-0.508777
1.72567
-0.952654
1.29786
-1.43556
0.742206
-1.9506
0.15936
-2.27552
-0.282765
-2.47458
-0.718363
-2.56621
-1.11113
-2.4147
-1.36409
-2.18829
-1.66117
-1.97815
0.0498846
-0.53254
0.485164
-1.17642
0.92941
-1.67411
1.29847
-2.10711
1.59634
-2.41178
1.97867
-2.48069
2.27888
-2.50608
2.40302
-2.47867
2.47126
-2.27102
2.37246
-2.01731
2.11866
-1.6716
1.91261
-1.1303
1.64671
-0.59706
1.26295
-0.0909544
0.88437
0.472749
0.382193
0.928946
-0.242944
1.32351
-0.767281
1.78035
-1.24908
2.12426
-1.69795
2.35495
-1.96929
2.54866
-2.21021
2.52141
-2.46629
2.31652
-2.55285
2.08549
-2.53835
1.71943
-2.41884
1.30621
-2.03468
0.995862
-1.55063
0.636526
-1.08031
0.249113
-0.537306
-0.0806712
1.6337
2.06744
1.14742
2.30325
0.528197
2.34167
-0.0999968
2.39443
-0.552212
2.37344
-0.976038
2.23633
-1.37082
2.10028
-1.64705
1.81238
-1.96195
1.34824
-2.2449
0.914839
-2.32026
0.452064
-2.31009
-0.0398175
-2.18511
-0.41208
-1.86098
-0.8183
-1.5378
-1.31321
-1.20386
-1.71885
-0.73715
-2.09782
-0.281611
-2.42357
0.202883
-2.50851
0.811464
-2.48737
1.33711
-2.43768
1.76116
-2.23317
2.15557
-1.98977
2.3413
-1.71213
2.36739
-1.21227
2.38447
-0.615872
2.27627
-0.0176118
2.1165
0.653098
2.03184
1.19778
1.84087
1.53771
2.65746
2.54133
2.52794
2.24547
2.3316
1.96452
2.00671
1.60758
1.57863
1.22745
1.22499
0.919853
0.807508
0.483069
0.26955
-0.0715771
-0.227878
-0.591565
-0.761444
-1.16268
-1.30048
-1.67617
-1.64239
-1.96488
-1.90602
-2.18429
-2.15953
-2.32701
-2.28132
-2.29831
-2.39504
-2.25829
-2.49985
-2.14885
-2.3888
-1.8233
-2.1567
-1.42936
-1.86039
-0.947835
-1.39703
-0.307747
-0.938877
0.270611
-0.542158
0.768759
-0.0318769
1.26458
0.499237
1.58758
1.01087
1.79565
1.61125
2.04301
2.10043
2.20624
2.36565
2.33519
2.53544
2.51793
1.95369
1.6262
2.2473
1.15617
2.37967
0.566287
2.425
0.0757037
2.52474
-0.402002
2.49634
-0.902183
2.31471
-1.29064
2.05678
-1.6963
1.56614
-2.12347
0.928591
-2.36135
0.350324
-2.48585
-0.252154
-2.52478
-0.811294
-2.35695
-1.21031
-2.15289
-1.62631
-1.97468
-2.03055
-1.65372
-2.28278
-1.27683
-2.50012
-0.861183
-2.60264
-0.273255
-2.44806
0.305455
-2.19916
0.771708
-1.84709
1.24829
-1.32449
1.62523
-0.84815
1.89598
-0.427258
2.23218
0.0296811
2.48714
0.372279
2.56103
0.678556
2.55465
1.10779
2.33654
1.51623
1.91114
-0.0682468
0.430502
-0.650478
0.866003
-1.11864
1.37381
-1.54286
1.8049
-1.92195
2.16573
-2.10362
2.5234
-2.23993
2.65915
-2.38854
2.57047
-2.38772
2.39732
-2.32456
2.04028
-2.19612
1.59648
-1.84007
1.22997
-1.41377
0.789823
-1.00985
0.293108
-0.515708
-0.153693
-0.0588047
-0.699835
0.348002
-1.27401
0.880251
-1.70826
1.4005
-2.11284
1.8152
-2.41112
2.21296
-2.46548
2.43398
-2.43705
2.44931
-2.31161
2.45821
-2.02042
2.37858
-1.77617
2.17216
-1.57066
1.96052
-1.27963
1.58668
-1.01537
1.01132
-0.679645
0.448397
-0.128689
-1.76369
-2.08107
-1.29063
-2.33893
-0.826553
-2.53315
-0.342536
-2.48834
0.27023
-2.34121
0.815727
-2.16613
1.26789
-1.85136
1.70378
-1.53796
1.95146
-1.24559
2.05896
-0.79244
2.18251
-0.294646
2.18795
0.181492
2.10449
0.734419
2.03068
1.19225
1.78462
1.50482
1.39348
1.8499
0.990406
2.13542
0.446062
2.32609
-0.163927
2.539
-0.679611
2.5953
-1.21298
2.42021
-1.67508
2.18193
-1.91634
1.81428
-2.0972
1.3377
-2.21463
0.935517
-2.20954
0.473764
-2.27897
-0.115228
-2.36818
-0.672623
-2.29722
-1.26195
-2.14657
-1.83256
-2.54084
-2.51614
-2.51803
-2.42668
-2.27344
-2.15071
-1.92446
-1.84386
-1.52579
-1.48751
-0.97269
-0.982551
-0.44516
-0.515035
-0.0115464
-0.0773652
0.482643
0.44789
0.934637
0.905079
1.32117
1.31765
1.77725
1.78522
2.1323
2.11515
2.30355
2.30689
2.43197
2.46203
2.42243
2.41904
2.2838
2.21819
2.19898
1.97936
2.03374
1.54759
1.70951
0.987345
1.35109
0.46999
0.850632
-0.0897
0.228753
-0.586321
-0.285069
-0.887868
-0.766142
-1.19427
-1.25726
-1.53
-1.63235
-1.82181
-2.02391
-2.2074
-2.43694
-2.56204
-2.63752
-2.67118
-1.82747
-1.4186
-2.07685
-0.967089
-2.32151
-0.504067
-2.51989
0.102631
-2.53018
0.681242
-2.49366
1.14257
-2.37469
1.60256
-2.04659
1.93286
-1.66764
2.12184
-1.21986
2.34769
-0.603219
2.48528
-0.0135882
2.46758
0.533779
2.41109
1.12392
2.18087
1.58192
1.77112
1.94181
1.39622
2.31979
0.985656
2.53282
0.515722
2.57663
0.118858
2.53015
-0.353735
2.23551
-0.934075
1.79585
-1.41296
1.42305
-1.83536
1.03638
-2.18799
0.695147
-2.31442
0.458603
-2.3762
0.0824343
-2.45492
-0.438441
-2.39232
-0.958371
-2.25685
-1.53889
-2.02996
0.339863
-0.150408
0.752367
-0.689814
1.24436
-1.14155
1.67989
-1.63182
1.99501
-2.09281
2.30222
-2.35786
2.4476
-2.54681
2.39833
-2.61042
2.33969
-2.42059
2.18713
-2.15349
1.92539
-1.82051
1.69741
-1.34279
1.35186
-0.910004
0.839795
-0.4961
0.342519
0.0382768
-0.201058
0.55554
-0.763413
1.08435
-1.15684
1.68383
-1.51347
2.1006
-1.90133
2.29963
-2.17449
2.38567
-2.41931
2.26597
-2.60984
2.09441
-2.53752
2.06511
-2.32075
2.01478
-2.05225
1.90564
-1.64526
1.74865
-1.25572
1.33285
-0.907311
0.738001
-0.396467
0.180691
1.88964
2.19587
1.57959
2.38401
1.11011
2.42905
0.527519
2.4771
-0.00584197
2.38491
-0.59427
2.10637
-1.15819
1.80579
-1.5279
1.39727
-1.83456
0.897653
-2.05432
0.49924
-2.08513
0.0850738
-2.11601
-0.399541
-2.14045
-0.817701
-2.02957
-1.28015
-1.90327
-1.77504
-1.66997
-2.08552
-1.17088
-2.29468
-0.583704
-2.44513
0.0428107
-2.41863
0.697586
-2.36846
1.12003
-2.32734
1.34427
-2.0954
1.56416
-1.74552
1.73126
-1.31078
1.95708
-0.687261
2.32402
-0.0795754
2.56381
0.404506
2.60668
0.909699
2.51883
1.35368
2.18215
1.73022
2.55906
2.61473
2.33204
2.50983
2.10899
2.36339
1.77886
2.03302
1.31387
1.57452
0.870926
1.1538
0.341592
0.658282
-0.270171
0.144367
-0.758402
-0.247351
-1.20203
-0.677467
-1.61835
-1.13663
-1.86598
-1.50573
-2.09307
-1.92896
-2.34394
-2.33505
-2.43965
-2.53686
-2.45747
-2.61218
-2.39995
-2.46486
-2.11603
-1.9947
-1.77066
-1.4689
-1.45477
-0.983964
-1.03773
-0.521833
-0.622067
-0.242778
-0.20746
-0.00597846
0.379023
0.410054
0.981752
0.888364
1.48105
1.41899
1.95488
1.99391
2.25414
2.34586
2.36621
2.48428
2.50121
2.56601
1.63221
1.22636
2.06001
0.744525
2.3322
0.18071
2.46082
-0.293803
2.56569
-0.792037
2.49764
-1.33219
2.29459
-1.73441
2.09985
-2.08563
1.77187
-2.3835
1.33481
-2.45601
0.914834
-2.43741
0.360055
-2.39348
-0.286724
-2.19637
-0.865176
-1.97151
-1.49506
-1.7333
-2.08261
-1.30248
-2.42038
-0.803869
-2.57788
-0.316606
-2.51701
0.252083
-2.22276
0.733592
-1.99698
1.08356
-1.86776
1.48777
-1.69909
1.85636
-1.54979
2.14258
-1.26969
2.44943
-0.724259
2.58941
-0.141903
2.48595
0.411527
2.31949
0.967453
2.03885
1.35598
1.66175
-0.52135
-0.0161403
-1.05542
0.468184
-1.44523
1.03336
-1.79965
1.49811
-2.13938
1.85923
-2.3042
2.21897
-2.41174
2.41036
-2.48322
2.44965
-2.34975
2.46284
-2.12821
2.2955
-1.86479
1.96872
-1.43541
1.63417
-0.998944
1.17122
-0.612931
0.639907
-0.120904
0.142757
0.368936
-0.518904
0.821983
-1.19295
1.36511
-1.56463
1.82215
-1.78043
2.10182
-1.90327
2.33877
-1.94898
2.43321
-2.13598
2.38698
-2.36177
2.37983
-2.40975
2.27628
-2.35219
1.99304
-2.13128
1.6559
-1.69957
1.16442
-1.29689
0.545076
-0.918853
0.0355818
-0.434999
-2.10037
-2.30174
-1.70234
-2.43184
-1.26639
-2.51941
-0.785022
-2.40891
-0.169407
-2.22808
0.38135
-2.01897
0.849907
-1.64068
1.33876
-1.22904
1.68578
-0.827787
1.90193
-0.296532
2.11288
0.217532
2.17316
0.648451
2.12175
1.12494
2.15044
1.51501
2.12721
1.79023
1.90609
2.11618
1.38047
2.36459
0.610586
2.4678
0.0310315
2.54117
-0.243726
2.44078
-0.538805
2.14151
-0.915345
1.84273
-1.29684
1.4698
-1.7768
1.00152
-2.19897
0.580405
-2.3856
0.066806
-2.49457
-0.571835
-2.52466
-1.12542
-2.40206
-1.63238
-2.27984
-2.07331
-2.49353
-2.61922
-2.3196
-2.64207
-1.96534
-2.42287
-1.56674
-2.12851
-1.16219
-1.77355
-0.612402
-1.27839
-0.0677656
-0.827725
0.408258
-0.413035
0.944676
0.0941046
1.40144
0.539869
1.7325
0.9187
2.07936
1.3548
2.30461
1.71298
2.36468
2.03588
2.42022
2.42947
2.36573
2.5612
2.17957
2.27649
2.01784
1.87116
1.74552
1.54203
1.31245
1.30856
0.883144
1.11888
0.373783
0.724742
-0.204413
0.186977
-0.657826
-0.318331
-1.09722
-0.864948
-1.57461
-1.35989
-1.93855
-1.69875
-2.28129
-2.06205
-2.58924
-2.40226
-2.65101
-2.5645
-1.55081
-1.00998
-1.93249
-0.480157
-2.25979
-0.0140042
-2.47973
0.538192
-2.47559
1.04827
-2.43312
1.46626
-2.35835
1.91405
-2.12553
2.23532
-1.86398
2.37941
-1.54358
2.50226
-1.04787
2.49122
-0.555584
2.31999
-0.0995097
2.1473
0.448742
1.85645
0.908481
1.42715
1.26341
1.03974
1.74141
0.596876
1.95628
0.0756024
2.03587
-0.363556
2.21362
-0.833928
2.27613
-1.35132
2.20901
-1.72276
2.06666
-2.03178
1.71556
-2.30051
1.26717
-2.37987
0.877045
-2.40622
0.399259
-2.42545
-0.132367
-2.26258
-0.609505
-2.00523
-1.16004
-1.6822
0.780048
0.210608
1.22458
-0.395071
1.66602
-0.853105
1.98319
-1.29103
2.1657
-1.69516
2.37688
-1.95943
2.47752
-2.23088
2.40716
-2.44903
2.30323
-2.43157
2.05126
-2.30367
1.64808
-2.09471
1.28272
-1.74136
0.853561
-1.42051
0.33254
-1.09992
-0.119293
-0.532687
-0.607087
-0.0788386
-1.13833
0.326064
-1.52699
0.860826
-1.87385
1.31206
-2.20767
1.71062
-2.36661
2.10863
-2.45877
2.31717
-2.50523
2.3858
-2.3383
2.4395
-2.08358
2.3469
-1.80477
2.16111
-1.37307
1.97311
-0.922476
1.60491
-0.495129
1.10641
0.0664611
0.628597
2.16906
2.47095
1.83571
2.57814
1.38065
2.47136
0.878529
2.35044
0.463051
2.13611
-0.0390813
1.81248
-0.612869
1.51992
-1.08997
1.11624
-1.53912
0.574193
-1.87273
0.0867871
-1.95072
-0.417036
-1.99012
-0.933536
-2.1103
-1.29736
-2.23714
-1.64035
-2.28495
-2.00544
-2.03309
-2.22567
-1.57548
-2.39484
-1.11656
-2.52231
-0.629654
-2.44056
-0.0671661
-2.27669
0.395615
-2.08262
0.812055
-1.71208
1.277
-1.28907
1.63697
-0.860153
1.94622
-0.288814
2.29929
0.274175
2.50521
0.75495
2.57123
1.28691
2.58566
1.74069
2.39374
2.06387
2.54626
2.60963
2.25396
2.51385
1.89485
2.43686
1.40359
2.24373
0.825265
1.93286
0.362577
1.59389
-0.105578
1.07839
-0.634174
0.476058
-1.07858
0.0229065
-1.53591
-0.357815
-1.98578
-0.673519
-2.22339
-0.897297
-2.35592
-1.33325
-2.44066
-2.0272
-2.35861
-2.50376
-2.25246
-2.58102
-2.15071
-2.36974
-1.87334
-2.02102
-1.52556
-1.77827
-1.15389
-1.5496
-0.633156
-1.19733
-0.118473
-0.859697
0.328765
-0.470599
0.855629
0.0728161
1.33597
0.590426
1.71377
1.09072
2.11852
1.63723
2.40388
2.0313
2.51093
2.29429
2.59225
2.53375
1.36991
0.958876
1.7693
0.404419
2.04683
-0.269955
2.25836
-0.822337
2.50614
-1.30635