# vtk DataFile Version 3.1
vtk output
ASCII
DATASET POLYDATA
POINTS 4260 FLOAT
2.83277e-16          -1    -3.14159
-0.104528 -0.994522  -3.14159
 0.104528 -0.994522  -3.14159
-0.207912 -0.978148  -3.14159
 0.207912 -0.978148  -3.14159
-0.309017 -0.951057  -3.14159
 0.309017 -0.951057  -3.14159
-0.406737 -0.913545  -3.14159
 0.406737 -0.913545  -3.14159
     -0.5 -0.866025  -3.14159
      0.5 -0.866025  -3.14159
-0.587785 -0.809017  -3.14159
 0.587785 -0.809017  -3.14159
-0.669131 -0.743145  -3.14159
 0.669131 -0.743145  -3.14159
-0.743145 -0.669131  -3.14159
 0.743145 -0.669131  -3.14159
-0.809017 -0.587785  -3.14159
 0.809017 -0.587785  -3.14159
-0.866025      -0.5  -3.14159
0.866025     -0.5 -3.14159
-0.913545 -0.406737  -3.14159
 0.913545 -0.406737  -3.14159
-0.951057 -0.309017  -3.14159
 0.951057 -0.309017  -3.14159
-0.978148 -0.207912  -3.14159
 0.978148 -0.207912  -3.14159
-0.994522 -0.104528  -3.14159
 0.994522 -0.104528  -3.14159
          -1 -5.66554e-16     -3.14159
       1        0 -3.14159
-0.994522  0.104528  -3.14159
0.994522 0.104528 -3.14159
-0.978148  0.207912  -3.14159
0.978148 0.207912 -3.14159
-0.951057  0.309017  -3.14159
0.951057 0.309017 -3.14159
-0.913545  0.406737  -3.14159
0.913545 0.406737 -3.14159
-0.866025       0.5  -3.14159
0.866025      0.5 -3.14159
-0.809017  0.587785  -3.14159
0.809017 0.587785 -3.14159
-0.743145  0.669131  -3.14159
0.743145 0.669131 -3.14159
-0.669131  0.743145  -3.14159
0.669131 0.743145 -3.14159
-0.587785  0.809017  -3.14159
0.587785 0.809017 -3.14159
    -0.5 0.866025 -3.14159
     0.5 0.866025 -3.14159
-0.406737  0.913545  -3.14159
0.406737 0.913545 -3.14159
-0.309017  0.951057  -3.14159
0.309017 0.951057 -3.14159
-0.207912  0.978148  -3.14159
0.207912 0.978148 -3.14159
-0.104528  0.994522  -3.14159
0.104528 0.994522 -3.14159
-1.83697e-16            1     -3.14159
-0.052336  -0.99863   -3.0509
0.052336 -0.99863  -3.0509
-0.156434 -0.987688   -3.0509
 0.156434 -0.987688   -3.0509
-0.258819 -0.965926   -3.0509
 0.258819 -0.965926   -3.0509
-0.358368  -0.93358   -3.0509
0.358368 -0.93358  -3.0509
 -0.45399 -0.891007   -3.0509
  0.45399 -0.891007   -3.0509
-0.544639 -0.838671   -3.0509
 0.544639 -0.838671   -3.0509
 -0.62932 -0.777146   -3.0509
  0.62932 -0.777146   -3.0509
-0.707107 -0.707107   -3.0509
 0.707107 -0.707107   -3.0509
-0.777146  -0.62932   -3.0509
0.777146 -0.62932  -3.0509
-0.838671 -0.544639   -3.0509
 0.838671 -0.544639   -3.0509
-0.891007  -0.45399   -3.0509
0.891007 -0.45399  -3.0509
 -0.93358 -0.358368   -3.0509
  0.93358 -0.358368   -3.0509
-0.965926 -0.258819   -3.0509
 0.965926 -0.258819   -3.0509
-0.987688 -0.156434   -3.0509
 0.987688 -0.156434   -3.0509
 -0.99863 -0.052336   -3.0509
  0.99863 -0.052336   -3.0509
-0.99863 0.052336  -3.0509
 0.99863 0.052336  -3.0509
-0.987688  0.156434   -3.0509
0.987688 0.156434  -3.0509
-0.965926  0.258819   -3.0509
0.965926 0.258819  -3.0509
-0.93358 0.358368  -3.0509
 0.93358 0.358368  -3.0509
-0.891007   0.45399   -3.0509
0.891007  0.45399  -3.0509
-0.838671  0.544639   -3.0509
0.838671 0.544639  -3.0509
-0.777146   0.62932   -3.0509
0.777146  0.62932  -3.0509
-0.707107  0.707107   -3.0509
0.707107 0.707107  -3.0509
-0.62932 0.777146  -3.0509
 0.62932 0.777146  -3.0509
-0.544639  0.838671   -3.0509
0.544639 0.838671  -3.0509
-0.45399 0.891007  -3.0509
 0.45399 0.891007  -3.0509
-0.358368   0.93358   -3.0509
0.358368  0.93358  -3.0509
-0.258819  0.965926   -3.0509
0.258819 0.965926  -3.0509
-0.156434  0.987688   -3.0509
0.156434 0.987688  -3.0509
-0.052336   0.99863   -3.0509
0.052336  0.99863  -3.0509
6.12323e-17          -1    -2.96021
-0.104528 -0.994522  -2.96021
 0.104528 -0.994522  -2.96021
-0.207912 -0.978148  -2.96021
 0.207912 -0.978148  -2.96021
-0.309017 -0.951057  -2.96021
 0.309017 -0.951057  -2.96021
-0.406737 -0.913545  -2.96021
 0.406737 -0.913545  -2.96021
     -0.5 -0.866025  -2.96021
      0.5 -0.866025  -2.96021
-0.587785 -0.809017  -2.96021
 0.587785 -0.809017  -2.96021
-0.669131 -0.743145  -2.96021
 0.669131 -0.743145  -2.96021
-0.743145 -0.669131  -2.96021
 0.743145 -0.669131  -2.96021
-0.809017 -0.587785  -2.96021
 0.809017 -0.587785  -2.96021
-0.866025      -0.5  -2.96021
0.866025     -0.5 -2.96021
-0.913545 -0.406737  -2.96021
 0.913545 -0.406737  -2.96021
-0.951057 -0.309017  -2.96021
 0.951057 -0.309017  -2.96021
-0.978148 -0.207912  -2.96021
 0.978148 -0.207912  -2.96021
-0.994522 -0.104528  -2.96021
 0.994522 -0.104528  -2.96021
          -1 -5.66554e-16     -2.96021
          1 2.77556e-17    -2.96021
-0.994522  0.104528  -2.96021
0.994522 0.104528 -2.96021
-0.978148  0.207912  -2.96021
0.978148 0.207912 -2.96021
-0.951057  0.309017  -2.96021
0.951057 0.309017 -2.96021
-0.913545  0.406737  -2.96021
0.913545 0.406737 -2.96021
-0.866025       0.5  -2.96021
0.866025      0.5 -2.96021
-0.809017  0.587785  -2.96021
0.809017 0.587785 -2.96021
-0.743145  0.669131  -2.96021
0.743145 0.669131 -2.96021
-0.669131  0.743145  -2.96021
0.669131 0.743145 -2.96021
-0.587785  0.809017  -2.96021
0.587785 0.809017 -2.96021
    -0.5 0.866025 -2.96021
     0.5 0.866025 -2.96021
-0.406737  0.913545  -2.96021
0.406737 0.913545 -2.96021
-0.309017  0.951057  -2.96021
0.309017 0.951057 -2.96021
-0.207912  0.978148  -2.96021
0.207912 0.978148 -2.96021
-0.104528  0.994522  -2.96021
0.104528 0.994522 -2.96021
-1.83697e-16            1     -2.96021
-0.052336  -0.99863  -2.86952
0.052336 -0.99863 -2.86952
-0.156434 -0.987688  -2.86952
 0.156434 -0.987688  -2.86952
-0.258819 -0.965926  -2.86952
 0.258819 -0.965926  -2.86952
-0.358368  -0.93358  -2.86952
0.358368 -0.93358 -2.86952
 -0.45399 -0.891007  -2.86952
  0.45399 -0.891007  -2.86952
-0.544639 -0.838671  -2.86952
 0.544639 -0.838671  -2.86952
 -0.62932 -0.777146  -2.86952
  0.62932 -0.777146  -2.86952
-0.707107 -0.707107  -2.86952
 0.707107 -0.707107  -2.86952
-0.777146  -0.62932  -2.86952
0.777146 -0.62932 -2.86952
-0.838671 -0.544639  -2.86952
 0.838671 -0.544639  -2.86952
-0.891007  -0.45399  -2.86952
0.891007 -0.45399 -2.86952
 -0.93358 -0.358368  -2.86952
  0.93358 -0.358368  -2.86952
-0.965926 -0.258819  -2.86952
 0.965926 -0.258819  -2.86952
-0.987688 -0.156434  -2.86952
 0.987688 -0.156434  -2.86952
 -0.99863 -0.052336  -2.86952
  0.99863 -0.052336  -2.86952
-0.99863 0.052336 -2.86952
 0.99863 0.052336 -2.86952
-0.987688  0.156434  -2.86952
0.987688 0.156434 -2.86952
-0.965926  0.258819  -2.86952
0.965926 0.258819 -2.86952
-0.93358 0.358368 -2.86952
 0.93358 0.358368 -2.86952
-0.891007   0.45399  -2.86952
0.891007  0.45399 -2.86952
-0.838671  0.544639  -2.86952
0.838671 0.544639 -2.86952
-0.777146   0.62932  -2.86952
0.777146  0.62932 -2.86952
-0.707107  0.707107  -2.86952
0.707107 0.707107 -2.86952
-0.62932 0.777146 -2.86952
 0.62932 0.777146 -2.86952
-0.544639  0.838671  -2.86952
0.544639 0.838671 -2.86952
-0.45399 0.891007 -2.86952
 0.45399 0.891007 -2.86952
-0.358368   0.93358  -2.86952
0.358368  0.93358 -2.86952
-0.258819  0.965926  -2.86952
0.258819 0.965926 -2.86952
-0.156434  0.987688  -2.86952
0.156434 0.987688 -2.86952
-0.052336   0.99863  -2.86952
0.052336  0.99863 -2.86952
6.12323e-17          -1    -2.77883
-0.104528 -0.994522  -2.77883
 0.104528 -0.994522  -2.77883
-0.207912 -0.978148  -2.77883
 0.207912 -0.978148  -2.77883
-0.309017 -0.951057  -2.77883
 0.309017 -0.951057  -2.77883
-0.406737 -0.913545  -2.77883
 0.406737 -0.913545  -2.77883
     -0.5 -0.866025  -2.77883
      0.5 -0.866025  -2.77883
-0.587785 -0.809017  -2.77883
 0.587785 -0.809017  -2.77883
-0.669131 -0.743145  -2.77883
 0.669131 -0.743145  -2.77883
-0.743145 -0.669131  -2.77883
 0.743145 -0.669131  -2.77883
-0.809017 -0.587785  -2.77883
 0.809017 -0.587785  -2.77883
-0.866025      -0.5  -2.77883
0.866025     -0.5 -2.77883
-0.913545 -0.406737  -2.77883
 0.913545 -0.406737  -2.77883
-0.951057 -0.309017  -2.77883
 0.951057 -0.309017  -2.77883
-0.978148 -0.207912  -2.77883
 0.978148 -0.207912  -2.77883
-0.994522 -0.104528  -2.77883
 0.994522 -0.104528  -2.77883
          -1 -1.22465e-16     -2.77883
          1 5.55112e-17    -2.77883
-0.994522  0.104528  -2.77883
0.994522 0.104528 -2.77883
-0.978148  0.207912  -2.77883
0.978148 0.207912 -2.77883
-0.951057  0.309017  -2.77883
0.951057 0.309017 -2.77883
-0.913545  0.406737  -2.77883
0.913545 0.406737 -2.77883
-0.866025       0.5  -2.77883
0.866025      0.5 -2.77883
-0.809017  0.587785  -2.77883
0.809017 0.587785 -2.77883
-0.743145  0.669131  -2.77883
0.743145 0.669131 -2.77883
-0.669131  0.743145  -2.77883
0.669131 0.743145 -2.77883
-0.587785  0.809017  -2.77883
0.587785 0.809017 -2.77883
    -0.5 0.866025 -2.77883
     0.5 0.866025 -2.77883
-0.406737  0.913545  -2.77883
0.406737 0.913545 -2.77883
-0.309017  0.951057  -2.77883
0.309017 0.951057 -2.77883
-0.207912  0.978148  -2.77883
0.207912 0.978148 -2.77883
-0.104528  0.994522  -2.77883
0.104528 0.994522 -2.77883
-1.83697e-16            1     -2.77883
-0.052336  -0.99863  -2.68814
0.052336 -0.99863 -2.68814
-0.156434 -0.987688  -2.68814
 0.156434 -0.987688  -2.68814
-0.258819 -0.965926  -2.68814
 0.258819 -0.965926  -2.68814
-0.358368  -0.93358  -2.68814
0.358368 -0.93358 -2.68814
 -0.45399 -0.891007  -2.68814
  0.45399 -0.891007  -2.68814
-0.544639 -0.838671  -2.68814
 0.544639 -0.838671  -2.68814
 -0.62932 -0.777146  -2.68814
  0.62932 -0.777146  -2.68814
-0.707107 -0.707107  -2.68814
 0.707107 -0.707107  -2.68814
-0.777146  -0.62932  -2.68814
0.777146 -0.62932 -2.68814
-0.838671 -0.544639  -2.68814
 0.838671 -0.544639  -2.68814
-0.891007  -0.45399  -2.68814
0.891007 -0.45399 -2.68814
 -0.93358 -0.358368  -2.68814
  0.93358 -0.358368  -2.68814
-0.965926 -0.258819  -2.68814
 0.965926 -0.258819  -2.68814
-0.987688 -0.156434  -2.68814
 0.987688 -0.156434  -2.68814
 -0.99863 -0.052336  -2.68814
  0.99863 -0.052336  -2.68814
-0.99863 0.052336 -2.68814
 0.99863 0.052336 -2.68814
-0.987688  0.156434  -2.68814
0.987688 0.156434 -2.68814
-0.965926  0.258819  -2.68814
0.965926 0.258819 -2.68814
-0.93358 0.358368 -2.68814
 0.93358 0.358368 -2.68814
[...]
POINT_DATA 4260
SCALARS Field double
LOOKUP_TABLE default
2.52607
1.81025
1.96936
0.146921
0.484561
-1.51654
-1.26935
-2.3884
-2.36442
-2.06198
-2.19551
-0.607862
-0.963616
1.16674
0.724465
2.30749
2.05451
2.31968
2.24901
1.12842
1.25805
-0.703948
-0.335304
-2.14607
-1.79504
-2.51913
-2.32283
-1.66705
-1.58759
0.080828
-0.0707882
1.78135
1.47592
2.53516
2.30491
2.06282
1.8863
0.550972
0.475341
-1.26703
-1.13531
-2.368
-2.20056
-2.25622
-2.11809
-1.03838
-0.85972
0.7514
0.835122
2.13182
2.13061
2.35391
2.40808
1.40175
1.4116
-0.295137
-0.323473
-1.90701
-1.8594
-2.51159
2.18728
2.48169
0.848007
1.48672
-0.913584
-0.248568
-2.23614
-1.77925
-2.34613
-2.42794
-1.24738
-1.83777
0.457102
-0.266617
1.98769
1.37078
2.49523
2.26877
1.67367
2.03031
0.0336961
0.690964
-1.64892
-1.00943
-2.55306
-2.12727
-2.11596
-2.18129
-0.613614
-1.10726
1.15471
0.5935
2.39056
1.93809
2.41089
2.26578
1.17059
1.46354
-0.597852
-0.150424
-2.05171
-1.69657
-2.49414
-2.30768
-1.61045
-1.75426
0.0804016
-0.271936
1.66726
1.43789
2.43352
2.39351
1.93051
2.1336
0.379406
0.837422
-1.3242
-0.938092
-2.36407
-2.24794
2.43426
1.45959
2.16825
-0.301076
0.862666
-1.8512
-0.90783
-2.45683
-2.19767
-1.84618
-2.29291
-0.233098
-1.25244
1.49646
0.418494
2.41506
1.91378
2.14632
2.36652
0.763872
1.58748
-1.06734
0.0433317
-2.31318
-1.56165
-2.39404
-2.35821
-1.30397
-1.8781
0.502948
-0.47011
2.04899
1.17309
2.50942
2.25658
1.75056
2.12015
0.102312
0.871958
-1.63374
-0.783902
-2.47681
-2.08509
-2.06192
-2.31338
-0.647741
-1.28419
1.13533
0.381645
2.31521
1.86805
2.2524
2.46619
1.08362
1.76567
-0.644037
0.160031
-2.07966
-1.47109
-2.38815
1.89051
2.46633
0.389868
1.73234
-1.33003
0.111645
-2.42663
-1.4983
-2.23831
-2.36592
-0.916778
-2.00929
0.825879
-0.557017
2.19606
1.14172
2.43313
2.24821
1.37593
2.2518
-0.338015
1.05431
-1.89017
-0.687377
-2.52407
-2.016
-1.81607
-2.34537
-0.184632
-1.46906
1.49844
0.217401
2.47137
1.74361
2.17918
2.35865
0.731713
1.80156
-1.03461
0.25961
-2.27781
-1.4335
-2.40646
-2.34505
-1.26172
-2.10003
0.509672
-0.780451
1.96198
0.997088
2.45499
2.22274
1.68719
2.30764
0.0219778
1.26781
-1.58087
-0.458232
-2.35341
-1.9399
2.22757
1.04088
2.24313
-0.75261
1.14831
-2.13558
-0.581727
-2.45473
-2.00947
-1.57928
-2.33546
0.146784
-1.48703
1.78493
0.138309
2.46071
1.76101
1.92865
2.4452
0.403792
1.87439
-1.36994
0.397518
-2.38433
-1.32577
-2.17813
-2.3714
-0.895667
-2.14403
0.903549
-0.858674
2.23726
0.862069
2.38144
2.18992
1.35781
2.34225
-0.371175
1.27687
-1.962
-0.403963
-2.50506
-1.93675
-1.78338
-2.49658
-0.20604
-1.7387
1.51943
-0.149152
2.45679
1.49734
2.09629
2.41736
0.731531
2.04739
-0.98621
0.625055
-2.20882
-1.05177
-2.21024
1.56061
2.38001
-0.0431014
1.9032
-1.66773
0.423837
-2.51408
-1.22608
-2.04382
-2.28339
-0.549159
-2.15641
1.17205
-0.845146
2.34053
0.880311
2.30339
2.16815
1.04518
2.40947
-0.687777
1.37529
-2.0625
-0.37134
-2.41169
-1.87806
-1.4592
-2.46966
0.24563
-1.80234
1.785
-0.157024
2.46216
1.52593
1.86642
2.42186
0.259145
2.12786
-1.44091
0.692409
-2.422
-1.11499
-2.22092
-2.31515
-0.840688
-2.39699
0.957184
-1.28378
2.21753
0.510566
2.40095
1.9698
1.36495
2.39179
-0.390039
1.62908
-1.85888
-0.0124926
-2.34362
-1.63781
2.0238
0.675396
2.29136
-1.10005
1.40522
-2.28862
-0.267451
-2.33309
-1.81547
-1.24218
-2.37071
0.528675
-1.73481
2.01647
-0.189269
2.42386
1.53106
1.64475
2.43904
0.0245852
2.09816
-1.63906
0.732167
-2.39118
-1.06313
-1.90445
-2.33011
-0.470016
-2.35845
1.26808
-1.22603
2.35108
0.532214
2.17646
2.07786
0.924943
2.52254
-0.824101
1.67545
-2.21287
0.0224777
-2.42902
-1.69585
-1.41579
-2.56947
0.273813
-2.10223
1.87693
-0.637583
2.51923
1.11156
1.83813
2.30976
0.285892
2.25362
-1.39527
1.02338
-2.38023
-0.679371
-2.0672
1.29623
2.31881
-0.364298
2.07861
-1.86334
0.73984
-2.46321
-0.943179
-1.75335
-2.19191
-0.153894
-2.31463
1.47669
-1.17955
2.39988
0.537516
2.08548
1.99086
0.660385
2.48557
-1.04029
1.65945
-2.19628
-0.0354044
-2.24995
-1.67622
-1.07673
-2.51867
0.657254
-2.08644
2.01346
-0.532723
2.38337
1.258
1.50984
2.41348
-0.203581
2.40262
-1.7797
1.12985
-2.46388
-0.721762
-1.93783
-2.15565
-0.365484
-2.54671
1.39447
-1.66514
2.40318
0.0901204
2.24295
1.72036
0.93721
2.43325
-0.885388
1.9292
-2.19292
0.377146
-2.37458
-1.37923
1.8738
0.401825
2.36679
-1.32327
1.68102
-2.31015
0.0691215
-2.10781
-1.5986
-0.859262
-2.39816
0.888122
-2.00772
2.17237
-0.58193
2.29252
1.2085
1.28558
2.3424
-0.38583
2.26805
-1.89458
1.07225
-2.36156
-0.737476
-1.60327
-2.19615
-0.050286
-2.49308
1.58966
-1.56453
2.40459
0.164963
1.92673
1.87821
0.492075
2.60634
-1.22241
2.01743
-2.37047
0.467068
-2.25613
-1.35654
-0.986226
-2.48944
0.756115
-2.30326
2.17726
-0.998593
2.48769
0.791998
1.48237
2.208
-0.233581
2.42788
-1.84493
1.38149
-2.56934
-0.335247
-1.93936
1.07725
2.27893
-0.610007
2.26831
-1.96531
1.0786
-2.32704
-0.626118
-1.41509
-2.06759
0.234106
-2.46255
1.7228
-1.54256
2.37372
0.127899
1.78863
1.73028
0.23047
2.49686
-1.39581
1.92939
-2.3046
0.349378
-2.06136
-1.37834
-0.691295
-2.46402
1.03867
-2.30572
2.191
-0.914799
2.26085
0.910301
1.14532
2.2826
-0.624836
2.56313
-2.03778
1.51105
-2.41632
-0.29946
-1.59342
-1.88822
0.116879
-2.54552
1.78216
-1.90081
2.50437
-0.229325
2.00083
1.51255
0.45722
2.47015
-1.38793
2.20893
-2.49934
0.760164
-2.36896
-1.10069
1.70891
0.133904
2.4244
-1.51658
1.95664
-2.29062
0.433659
-1.85334
-1.33293
-0.479241
-2.37848
1.20671
-2.2611
2.26207
-0.99705
2.09463
0.828767
0.884148
2.18207
-0.802633
2.4041
-2.12808
1.43483
-2.30359
-0.331513
-1.2915
-1.95155
0.349827
-2.53269
1.86844
-1.86793
2.41568
-0.249186
1.66246
1.56144
0.088737
2.54456
-1.55267
2.23942
-2.44816
0.860757
-2.02706
-0.984534
-0.551386
-2.31252
1.18821
-2.38553
2.39377
-1.26368
2.37741
0.519014
1.09049
2.1061
-0.727651
2.58292
-2.21644
1.73765
-2.65911
0.0492211
-1.72897
0.79247
2.17018
-0.899456
2.41253
-2.08612
1.41548
-2.19703
-0.265111
-1.0883
-1.87247
0.593402
-2.54479
1.92497
-1.87436
2.30318
-0.296462
1.46565
1.42252
-0.196196
2.46142
-1.72277
2.18882
-2.37728
0.779906
-1.85262
-0.986577
-0.315398
-2.30237
1.38399
-2.45187
2.32612
-1.29518
2.11667
0.482735
0.798759
2.01368
-0.989543
2.57432
-2.22388
1.78138
-2.3165
0.0814115
-1.24623
-1.59368
0.544341
-2.4789
2.07765
-2.07569
2.51792
-0.526314
1.72069
1.28147
0.0165735
2.46053
-1.77701
2.45922
-2.6519
1.16818
-2.21817
-0.728291
1.42683
-0.239836
2.38414
-1.7862
2.18387
-2.31725
0.814443
-1.62681
-0.995478
-0.122758
-2.26257
1.50037
-2.43341
2.331
-1.37648
1.89206
0.432948
0.502941
1.97443
-1.17698
2.49866
-2.31263
1.79635
-2.21191
0.12784
-0.977361
-1.61448
0.720458
-2.47938
2.10325
-2.122
2.39558
-0.686238
1.40247
1.15045
-0.270132
2.34774
-1.81678
2.33104
-2.47261
1.16788
-1.7915
-0.640578
-0.171647
-2.12095
1.51863
-2.44712
2.50379
-1.53922
2.20745
0.187601
0.724412
1.91216
-1.10316
2.65275
-2.40613
2.06328
-2.55859
0.48977
-1.37718
0.369723
1.92737
-1.30129
2.46324
-2.28141
1.72758
-2.10816
0.145722
-0.782272
-1.57454
0.941823
-2.51262
2.12483
-2.12366
2.24559
-0.697111
1.17791
1.08141
-0.566495
2.36436
-1.98569
2.39949
-2.39972
1.20751
-1.6263
-0.543478
0.0400629
-2.05585
1.68407
-2.51913
2.41817
-1.64158
1.95879
0.0248317
0.480441
1.6596
-1.29516
2.47832
-2.3518
1.96124
-2.19708
0.413229
-0.942
-1.30906
0.871001
-2.41095
2.25028
-2.27588
2.44025
-0.901593
1.42955
0.921512
-0.333731
2.30577
-1.99273
2.6011
-2.6003
1.55288
-1.89777
-0.273328
1.01131
-0.729259
2.2279
-2.13356
2.34938
-2.38258
1.20947
-1.41178
-0.573018
0.235719
-2.0235
1.80339
-2.49174
2.42032
-1.69328
1.72866
0.0296071
0.182315
1.70181
-1.47849
2.50815
-2.43217
2.09675
-2.0851
0.580038
-0.670044
-1.22835
1.04855
-2.34607
2.28372
-2.30402
2.34005
-1.09206
1.14761
0.719178
-0.583462
2.0947
-2.01941
2.36212
-2.45796
1.43916
-1.57226
-0.298628
0.127047
-1.91501
1.7263
-2.51388
2.4978
-1.87446
1.98179
-0.271298
0.397353
1.54305
-1.34728
2.5485
-2.41312
2.27416
-2.28823
0.917326
-0.929925
-0.141448
1.58378
-1.75573
2.43696
-2.49023
2.01951
-2.00673
0.60685
-0.45544
-1.17083
1.30834
-2.35872
2.34187
-2.28298
2.21513
-1.0748
0.937259
0.689169
-0.870511
2.16659
-2.17826
2.50424
-2.37136
1.56798
-1.38855
-0.104557
0.363356
-1.7559
1.92459
-2.50506
2.45361
-1.91607
1.77692
-0.396475
0.183922
1.30468
-1.5451
2.36446
-2.42318
2.13511
-2.05856
0.769619
-0.67978
-0.974488
1.09981
-2.29731
2.30434
-2.47491
2.27376
-1.35013
1.12224
0.412581
-0.613473
1.95943
-2.07513
2.56487
-2.40639
1.82933
-1.48751
0.175713
0.549102
-1.22778
2.01122
-2.45
2.47562
-2.39419
1.61517
-1.14526
-0.0832001
0.625272
-1.68164
2.11539
-2.4531
2.51084
-1.96186
1.57883
-0.398937
-0.10002
1.33645
-1.72156
2.39175
-2.49383
2.28545
-1.92714
0.974201
-0.375219
-0.831878
1.32362
-2.14861
2.39432
-2.40173
2.23102
-1.4276
0.881572
0.326863
-0.861087
1.85667
-2.16015
2.40968
-2.3917
1.75476
-1.34561
0.124833
0.375554
-1.60752
1.84192
-2.49763
2.39657
-2.18762
1.701
-0.793962
0.0815485
1.03173
-1.51923
2.26347
-2.32396
2.32223
-1.95042
1.24973
-0.488677
-0.620299
1.22625
-2.13026
2.37528
-2.59448
2.28946
-1.81108
1.08576
-0.0743139
-0.706726
1.67973
-2.12558
2.52905
-2.38332
2.15003
-1.44896
0.685829
0.231775
-1.14952
1.85189
-2.32118
2.48024
-2.29649
1.83277
-1.13639
0.301723
0.655115
-1.42335
2.09749
-2.41732
2.41477
-2.11184
1.54833
-0.762424
-0.110255
0.975694
-1.74644
2.26561
-2.4259
2.3443
-1.86763
1.20649
-0.40948
-0.512658
1.28712
-2.0364
2.2876
-2.5517
2.04212
-1.74498
0.786364
-0.132698
-0.875466
1.49869
-2.11168
2.3772
-2.1765
1.96928
-1.09
0.543944
0.136108
-1.61399
1.7845
-2.61721
2.56197
-2.26495
1.98918
-0.790444
0.409517
1.0276
-1.30134
2.37336
-2.36483
2.51585
-2.20546
1.35627
-0.854696
-0.410082
0.888176
-1.94192
2.16062
-2.50445
2.36784
-1.72632
1.30784
-0.0769998
-0.433526
1.55313
-1.89839
2.42757
-2.4282
2.04757
-1.70873
0.578521
-0.0470418
-1.12141
1.6088
-2.23822
2.45008
-2.24689
2.10355
-1.05928
0.645582
0.642162
-1.1435
1.93373
-2.29992
2.24961
-2.34427
1.37998
-1.22926
-0.250685
0.519085
-1.68573
1.9015
-2.22882
2.25604
-1.63448
1.47538
-0.114913
-0.989437
0.896427
-2.3359
2.27231
-2.5219
2.48784
-1.48913
1.50641
0.341948
-0.260796
1.9902
-1.87237
2.59189
-2.45156
1.9517
-1.81297
0.344155
-0.259378
-1.44903
1.46266
-2.42337
2.36791
-2.15619
2.03174
-0.838865
0.691119
0.941621
-1.05682
2.21258
-2.26894
2.29163
-2.25785
1.24881
-1.12042
-0.428344
0.606016
-1.91328
2.1004
-2.35058
2.50459
-1.58715
1.65511
-0.0708212
0.0438061
1.50338
-1.60875
2.26293
-2.42979
1.78333
-1.96205
0.423851
-0.565228
-1.1545
1.06761
-2.16235
2.14863
-1.97429
2.03126
-0.746891
0.834077
-0.211469
-1.84997
1.52817
-2.5976
2.55235
-1.97961
2.25161
-0.368648
0.822793
1.38358
-0.944922
2.49216
-2.25359
2.34435
-2.41086
0.98578
-1.29168
-0.791354
0.421182
-2.14585
1.88113
-2.43895
2.40019
-1.44039
1.62044
0.266848
-0.0125352
1.76489
-1.59368
2.38956
-2.40231
1.77541
-1.97877
0.212779
-0.474578
-1.38852
1.24941
-2.26347
2.35836
-2.0111
2.35244
-0.677727
1.14476
0.978513
-0.603388
2.05669
-1.9446
2.10059
-2.30589
1.03953
-1.48539
-0.60538
0.127936
-1.87364
1.58764
-2.16015
2.1763
-1.3581
1.65405
0.207224
-1.26599
0.555984
-2.37971
2.06629
-2.28432
2.53803
-1.0695
1.7939
0.743854
0.112787
2.17522
-1.61808
2.46399
-2.46674
1.56753
-2.11205
-0.114027
-0.709884
-1.76405
1.07633
-2.45254
2.23439
-1.90198
2.21491
-0.445655
1.09573
1.26197
-0.639932
2.28965
-2.05825
2.08324
-2.37022
0.861448
-1.51132
-0.794318
0.122218
-2.06669
1.7591
-2.20726
2.47465
-1.21206
1.95752
0.355207
0.543404
1.77591
-1.13401
2.25769
-2.17726
1.5169
-2.00984
0.0422143
-0.839914
-1.45326
0.746861
-2.23178
1.97142
-1.79406
2.09688
-0.430158
1.10274
-0.54877
-1.98154
1.17785
-2.43193
2.37971
-1.57887
2.3446
0.0775436
1.12145
1.65177
-0.614773
2.43841
-2.08662
1.97894
-2.51708
0.471474
-1.63452
-1.21771
0.00921901
-2.2904
1.61294
-2.24648
2.42304
-1.02062
1.93626
0.694666
0.446361
1.98223
-1.22124
2.28792
-2.31111
1.40898
-2.23076
-0.230272
-0.966663
-1.68161
0.735949
-2.25581
2.05096
-1.70195
2.37693
-0.214618
1.46854
1.37549
-0.148949
2.20585
-1.57613
1.94779
-2.17819
0.680782
-1.61748
-0.977501
-0.146488
-2.07099
1.35633
-2.09473
2.13948
-1.08326
1.8468
0.530441
-1.51296
0.143863
-2.32145
1.70517
-1.934
2.40558
-0.592725
1.93936
1.10752
0.435019
2.23188
-1.31387
2.16513
-2.36148
1.03768
-2.27476
-0.634883
-1.05948
-2.03682
0.731021
-2.35675
2.09319
-1.4944
2.37795
0.0679969
1.5068
1.62835
-0.171206
2.33283
-1.76372
1.78966
-2.40666
0.383883
-1.88197
-1.21434
-0.42991
-2.21978
1.25909
-2.01861
2.22686
-0.774855
2.0347
0.829457
0.862404
2.06489
-0.762219
2.23842
-1.94584
1.22202
-2.01832
-0.362567
-1.04826
-1.75746
0.490084
-2.28873
1.841
-1.59171
2.19297
-0.0900941
1.3947
-0.926484
-2.0675
0.700388
-2.17592
2.03533
-1.10369
2.28745
0.532324
1.35156
1.84795
-0.244896
2.25935
-1.79021
1.49057
-2.45822
-0.105847
-1.83995
-1.61499
-0.336552
-2.3218
1.33451
-1.90014
2.39194
-0.464597
2.20564
1.19408
0.909225
2.19066
-0.781242
2.11595
-2.11128
0.952531
-2.37973
-0.7401
-1.41092
-1.99407
0.184099
-2.22341
1.61912
-1.34907
2.22032
0.279767
1.59946
1.77052
0.143219
2.31949
-1.31513
1.74391
-2.10232
0.280743
-1.76191
-1.36206
-0.414647
-2.24811
1.13598
-1.98734
2.11639
-0.762393
2.06196
0.889755
-1.7657
-0.353265
-2.20623
1.20406
-1.5097
2.13424
-0.0747518
2.00954
1.45177
0.784861
2.21677
-0.883038
1.78143
-2.07715
0.459953
-2.27437
-1.13151
-1.32151
-2.21116
0.374107
-2.12036
1.86302
-0.955028
2.42981
0.658385
1.84643
1.996
0.306558
2.31479
-1.37636
1.40995
-2.29866
-0.162153
-2.1078
-1.6584
-0.885967
-2.35306
0.777345
-1.79105
1.91883
-0.313638
1.99663
1.28805
1.04546
2.29602
-0.516933
2.1393
-1.81564
0.857356
-2.10244
-0.799113
-1.3145
-2.04495
0.187496
-2.29112
1.67929
-1.32177
2.28149
0.304171
1.711
-1.34121
-2.12795
0.128932
-1.85871
1.57968
-0.573154
2.15868
1.00434
1.59605
2.01812
0.236736
2.03488
-1.31756
0.976521
-2.22402
-0.656623
-1.93977
-1.92649
-0.68801
-2.23174
0.943971
-1.43987
2.19202
0.155579
2.32086
1.6873
1.29464
2.33356
-0.312756
1.85535
-1.78717
0.42747
-2.34778
-1.26969
-1.66796
-2.27688
-0.21897
-2.13861
1.27143
-0.960346
2.07999
0.761761
1.69343
2.09734
0.367094
2.32951
-1.13601
1.43934
-2.11351
-0.178846
-1.9966
-1.74459
-0.773769
-2.36765
0.833613
-1.79496
2.03731
-0.365738
2.26432
1.28629
-2.01137
-0.892771
-2.04498
0.630625
-1.03044
1.80408
0.477113
2.0808
1.79724
1.21977
2.18344
-0.298307
1.38957
-1.62277
-0.088075
-2.157
-1.55236
-1.57461
-2.2824
-0.0958973
-1.79151
1.43304
-0.372535
2.26465
1.2231
2.02507
2.2805
0.726679
2.19382
-0.934478
0.953888
-2.04597
-0.725069
-2.13595
-2.05689
-1.13232
-2.40692
0.481282
-1.49639
1.74945
0.160751
2.04359
1.68919
1.26514
2.41557
-0.274794
1.91631
-1.72219
0.404504
-2.25444
-1.25568
-1.67548
-2.28145
-0.223879
-2.19813
1.418
-0.955036
2.30785
0.756112
2.02387
-1.7506
-2.15061
-0.470651
-1.49219
1.08611
-0.00737531
2.02022
1.48453
1.89
2.17756
0.830616
1.80504
-0.702157
0.487596
-1.87529
-1.1428
-2.01232
-2.15001
-1.13024
-2.06599
0.359561
-0.954383
1.75328
0.730073
2.22671
2.07459
1.55572
2.34996
0.132759
1.49932
-1.39888
-0.121854
-2.18624
-1.74341
-1.75029
-2.45131
-0.425886
-1.94484
1.1151
-0.514762
2.10614
1.21914
1.91868
2.32573
0.683634
2.208
-0.90624
1.02502
-2.12135
-0.681905
-2.27802
-2.08979
-1.2234
-2.38962
0.418188
-1.48953
1.8567
0.110809
2.41228
1.69753
-2.21664
-1.41738
-1.83573
0.0473505
-0.519368
1.46049
1.03094
2.16437
2.12134
1.7112
2.12915
0.378976
1.00401
-1.07697
-0.589798
-2.00077
-1.89923
-1.8823
-2.28664
-0.719303
-1.44331
0.78917
0.156142
1.89211
1.66669
2.0627
2.41538
1.08799
1.95111
-0.494495
0.453253
-1.76407
-1.23629
-2.1009
-2.32898
-1.27126
-2.31321
0.329751
-1.095
1.74166
0.657729
2.25208
2.02352
1.63471
2.41329
0.0941918
1.5738
-1.5393
-0.111349
-2.37059
-1.69179
-2.06332
-2.42544
-0.717343
-1.98298
1.04718
-0.489763
2.23915
1.24255
2.29628
-2.10957
-2.11696
-1.04659
-1.09113
0.58758
0.553475
1.86588
1.92447
2.18191
2.28673
1.4504
1.54765
-0.0417039
0.0151696
-1.49425
-1.57291
-2.10394
-2.30935
-1.66465
-1.87207
-0.377825
-0.510983
1.1525
1.18771
2.02433
2.30238
1.78643
2.22139
0.581088
1.07048
-1.0373
-0.639979
-2.0878
-2.09202
-1.87839
-2.45577
-0.620313
-1.60292
1.02536
0.0017431
2.23606
1.65033
2.2726
2.45454
1.14462
1.96845
-0.533654
0.534393
-2.01446
-1.1815
-2.50019
-2.35253
-1.6852
-2.28744
-0.0730633
-1.07319
1.57005
0.638074
2.47211
2.08135
-2.34927
-1.88314
-1.57662
-0.517254
-0.00863186
1.09242
1.53135
2.19976
2.36369
2.15917
2.00472
1.03694
0.593807
-0.528972
-1.06176
-1.8438
-2.18504
-2.21972
-2.24344
-1.41502
-1.10537
0.0539662
0.597457
1.46504
1.96438
2.13229
2.39706
1.52868
1.60973
-0.0319174
-0.0473062
-1.58628
-1.64368
-2.25572
-2.43175
-1.56744
-2.04969
0.09783
-0.58643
1.7129
1.16587
2.4904
2.28389
2.08557
2.3004
0.589589
1.14626
-1.20825
-0.639859
-2.35651
-2.0585
-2.37863
-2.44859
-1.21805
-1.65028
0.598376
0.0374869
2.06147
1.71026
2.48268
-2.37899
-2.0064
-1.56697
-0.667856
0.0818633
1.06553
1.64402
2.26298
2.37601
2.2858
1.9823
1.21888
0.57023
-0.463192
-1.11835
-1.95193
-2.17845
-2.40052
-2.18836
-1.64401
-1.12544
-0.103278
0.548355
1.53941
1.89654
2.39182
2.18001
1.98137
1.16198
0.610108
-0.668835
-1.08892
-2.18147
-2.29372
-2.30142
-2.29253
-1.03982
-1.13759
0.782864
0.553832
2.2617
2.02734
2.58207
2.47901
1.64082
1.63547
-0.0508948
0.0142911
-1.75615
-1.62719
-2.58381
-2.50109
-2.07295
-2.06418
-0.580191
-0.586174
1.19127
1.15251
2.41144
2.37635
-2.37389
-2.25128
-1.2566
-1.04752
0.481019
0.672403
1.93305
2.114
2.47097
2.46459
1.76629
1.58661
0.136143
-0.0183232
-1.50316
-1.65137
-2.39005
-2.47921
-2.12139
-2.03485
-0.740105
-0.629206
0.993129
1.10553
2.16194
2.37179
2.27369
2.15876
1.21436
0.535339
-0.516632
-1.34599
-1.94046
-2.61319
-2.38871
-2.15565
-1.66662
-0.361238
-0.034007
1.47535
1.62895
2.5519
2.44001
2.4351
2.08183
1.09189
0.668936
-0.770453
-1.13352
-2.18463
-2.32036
-2.55411
-2.34781
-1.65677
-1.23653
0.110372
0.560243
1.76674
2.08648
2.53221
-2.51603
-1.78922
-1.9979
-0.218617
-0.427713
1.50717
1.3172
2.46486
2.40338
2.14219
2.35394
0.802392
1.09457
-0.941157
-0.722593
-2.25206
-2.13905
-2.37994
-2.55817
-1.3288
-1.7471
0.326538
0.00280588
1.84473
1.83039
2.40042
2.67613
1.67866
1.73126
0.148366
-0.150309
-1.46751
-2.00789
-2.38219
-2.75451
-2.02691
-1.62215
-0.632221
0.328822
1.06112
2.03165
2.29417
2.66478
2.38064
2.01048
1.22731
0.439355
-0.49533
-1.37722
-1.98125
-2.50061
-2.52295
-2.329
-1.74481
-1.05146
-0.0871122
0.738486
1.58096
2.20443
2.52163
-2.25194
-2.47868
-0.855291
-1.5145
0.948637
0.200547
2.22105
1.87678
2.42705
2.58212
1.40879
1.99609
-0.356077
0.46689
-1.88307
-1.35151
-2.46995
-2.53742
-1.86852
-2.44457
-0.292357
-1.19599
1.39875
0.699031
2.31252
2.45172
2.09061
2.59659
0.793841
1.00501
-0.952401
-0.836474
-2.15796
-2.47552
-2.26416
-2.49668
-1.25059
-0.869741
0.472488
1.0104
1.97571
2.32351
2.45521
2.54442
1.75933
1.48299
0.171891
-0.294308
-1.55469
-1.86569
-2.45512
-2.55681
-2.13172
-1.98397
-0.78305
-0.379812
1.01762
1.35916
2.31328
2.41203
-2.48348
-1.44108
-2.30014
0.26489
-0.91379
1.8761
0.891547
2.52735
2.25096
1.86214
2.54793
0.318117
1.53221
-1.38655
-0.267442
-2.43448
-1.90108
-2.20803
-2.66289
-0.889495
-2.15056
0.812421
-0.515637
2.13545
1.42786
2.35673
2.64925
1.33352
2.14326
-0.311057
0.349471
-1.79676
-1.56562
-2.40614
-2.52328
-1.72983
-1.86521
-0.16589
-0.201478
1.4551
1.54067
2.40926
2.45598
2.15208
2.17112
0.765925
0.870591
-0.958791
-0.908697
-2.21424
-2.24257
-2.41076
-2.41772
-1.34934
-1.44435
0.384054
0.239807
1.88054
1.85162
2.48998
-1.96685
-2.53583
-0.3693
-1.883
1.39124
-0.293191
2.39598
1.50447
2.2439
2.51423
0.95735
2.26313
-0.849457
0.934994
-2.16873
-0.911466
-2.40067
-2.33302
-1.47295
-2.5641
0.239606
-1.58706
1.81172
0.168175
2.41455
1.91961
1.84848
2.50502
0.347022
1.47408
-1.36498
-0.326624
-2.32191
-1.91566
-2.09972
-2.274
-0.852145
-1.23231
0.886285
0.398011
2.17657
1.82524
2.32508
2.40142
1.3526
1.73623
-0.311206
0.197278
-1.87083
-1.40482
-2.44461
-2.36968
-1.80234
-2.1661
-0.307929
-0.835048
1.38737
0.865113
2.37827
2.1289
-2.27833
-0.974158
-2.45229
0.765801
-1.34217
2.16362
0.402097
2.45867
1.94224
1.47118
2.56952
-0.199371
1.87242
-1.76923
0.231431
-2.48595
-1.46991
-1.89443