# vtk DataFile Version 3.1
vtk output
ASCII
DATASET POLYDATA
POINTS 4260 FLOAT
2.83277e-16          -1    -3.14159
-0.104528 -0.994522  -3.14159
 0.104528 -0.994522  -3.14159
-0.207912 -0.978148  -3.14159
 0.207912 -0.978148  -3.14159
-0.309017 -0.951057  -3.14159
 0.309017 -0.951057  -3.14159
-0.406737 -0.913545  -3.14159
 0.406737 -0.913545  -3.14159
     -0.5 -0.866025  -3.14159
      0.5 -0.866025  -3.14159
-0.587785 -0.809017  -3.14159
 0.587785 -0.809017  -3.14159
-0.669131 -0.743145  -3.14159
 0.669131 -0.743145  -3.14159
-0.743145 -0.669131  -3.14159
 0.743145 -0.669131  -3.14159
-0.809017 -0.587785  -3.14159
 0.809017 -0.587785  -3.14159
-0.866025      -0.5  -3.14159
0.866025     -0.5 -3.14159
-0.913545 -0.406737  -3.14159
 0.913545 -0.406737  -3.14159
-0.951057 -0.309017  -3.14159
 0.951057 -0.309017  -3.14159
-0.978148 -0.207912  -3.14159
 0.978148 -0.207912  -3.14159
-0.994522 -0.104528  -3.14159
 0.994522 -0.104528  -3.14159
          -1 -5.66554e-16     -3.14159
       1        0 -3.14159
-0.994522  0.104528  -3.14159
0.994522 0.104528 -3.14159
-0.978148  0.207912  -3.14159
0.978148 0.207912 -3.14159
-0.951057  0.309017  -3.14159
0.951057 0.309017 -3.14159
-0.913545  0.406737  -3.14159
0.913545 0.406737 -3.14159
-0.866025       0.5  -3.14159
0.866025      0.5 -3.14159
-0.809017  0.587785  -3.14159
0.809017 0.587785 -3.14159
-0.743145  0.669131  -3.14159
0.743145 0.669131 -3.14159
-0.669131  0.743145  -3.14159
0.669131 0.743145 -3.14159
-0.587785  0.809017  -3.14159
0.587785 0.809017 -3.14159
    -0.5 0.866025 -3.14159
     0.5 0.866025 -3.14159
-0.406737  0.913545  -3.14159
0.406737 0.913545 -3.14159
-0.309017  0.951057  -3.14159
0.309017 0.951057 -3.14159
-0.207912  0.978148  -3.14159
0.207912 0.978148 -3.14159
-0.104528  0.994522  -3.14159
0.104528 0.994522 -3.14159
-1.83697e-16            1     -3.14159
-0.052336  -0.99863   -3.0509
0.052336 -0.99863  -3.0509
-0.156434 -0.987688   -3.0509
 0.156434 -0.987688   -3.0509
-0.258819 -0.965926   -3.0509
 0.258819 -0.965926   -3.0509
-0.358368  -0.93358   -3.0509
0.358368 -0.93358  -3.0509
 -0.45399 -0.891007   -3.0509
  0.45399 -0.891007   -3.0509
-0.544639 -0.838671   -3.0509
 0.544639 -0.838671   -3.0509
 -0.62932 -0.777146   -3.0509
  0.62932 -0.777146   -3.0509
-0.707107 -0.707107   -3.0509
 0.707107 -0.707107   -3.0509
-0.777146  -0.62932   -3.0509
0.777146 -0.62932  -3.0509
-0.838671 -0.544639   -3.0509
 0.838671 -0.544639   -3.0509
-0.891007  -0.45399   -3.0509
0.891007 -0.45399  -3.0509
 -0.93358 -0.358368   -3.0509
  0.93358 -0.358368   -3.0509
-0.965926 -0.258819   -3.0509
 0.965926 -0.258819   -3.0509
-0.987688 -0.156434   -3.0509
 0.987688 -0.156434   -3.0509
 -0.99863 -0.052336   -3.0509
  0.99863 -0.052336   -3.0509
-0.99863 0.052336  -3.0509
 0.99863 0.052336  -3.0509
-0.987688  0.156434   -3.0509
0.987688 0.156434  -3.0509
-0.965926  0.258819   -3.0509
0.965926 0.258819  -3.0509
-0.93358 0.358368  -3.0509
 0.93358 0.358368  -3.0509
-0.891007   0.45399   -3.0509
0.891007  0.45399  -3.0509
-0.838671  0.544639   -3.0509
0.838671 0.544639  -3.0509
-0.777146   0.62932   -3.0509
0.777146  0.62932  -3.0509
-0.707107  0.707107   -3.0509
0.707107 0.707107  -3.0509
-0.62932 0.777146  -3.0509
 0.62932 0.777146  -3.0509
-0.544639  0.838671   -3.0509
0.544639 0.838671  -3.0509
-0.45399 0.891007  -3.0509
 0.45399 0.891007  -3.0509
-0.358368   0.93358   -3.0509
0.358368  0.93358  -3.0509
-0.258819  0.965926   -3.0509
0.258819 0.965926  -3.0509
-0.156434  0.987688   -3.0509
0.156434 0.987688  -3.0509
-0.052336   0.99863   -3.0509
0.052336  0.99863  -3.0509
6.12323e-17          -1    -2.96021
-0.104528 -0.994522  -2.96021
 0.104528 -0.994522  -2.96021
-0.207912 -0.978148  -2.96021
 0.207912 -0.978148  -2.96021
-0.309017 -0.951057  -2.96021
 0.309017 -0.951057  -2.96021
-0.406737 -0.913545  -2.96021
 0.406737 -0.913545  -2.96021
     -0.5 -0.866025  -2.96021
      0.5 -0.866025  -2.96021
-0.587785 -0.809017  -2.96021
 0.587785 -0.809017  -2.96021
-0.669131 -0.743145  -2.96021
 0.669131 -0.743145  -2.96021
-0.743145 -0.669131  -2.96021
 0.743145 -0.669131  -2.96021
-0.809017 -0.587785  -2.96021
 0.809017 -0.587785  -2.96021
-0.866025      -0.5  -2.96021
0.866025     -0.5 -2.96021
-0.913545 -0.406737  -2.96021
 0.913545 -0.406737  -2.96021
-0.951057 -0.309017  -2.96021
 0.951057 -0.309017  -2.96021
-0.978148 -0.207912  -2.96021
 0.978148 -0.207912  -2.96021
-0.994522 -0.104528  -2.96021
 0.994522 -0.104528  -2.96021
          -1 -5.66554e-16     -2.96021
          1 2.77556e-17    -2.96021
-0.994522  0.104528  -2.96021
0.994522 0.104528 -2.96021
-0.978148  0.207912  -2.96021
0.978148 0.207912 -2.96021
-0.951057  0.309017  -2.96021
0.951057 0.309017 -2.96021
-0.913545  0.406737  -2.96021
0.913545 0.406737 -2.96021
-0.866025       0.5  -2.96021
0.866025      0.5 -2.96021
-0.809017  0.587785  -2.96021
0.809017 0.587785 -2.96021
-0.743145  0.669131  -2.96021
0.743145 0.669131 -2.96021
-0.669131  0.743145  -2.96021
0.669131 0.743145 -2.96021
-0.587785  0.809017  -2.96021
0.587785 0.809017 -2.96021
    -0.5 0.866025 -2.96021
     0.5 0.866025 -2.96021
-0.406737  0.913545  -2.96021
0.406737 0.913545 -2.96021
-0.309017  0.951057  -2.96021
0.309017 0.951057 -2.96021
-0.207912  0.978148  -2.96021
0.207912 0.978148 -2.96021
-0.104528  0.994522  -2.96021
0.104528 0.994522 -2.96021
-1.83697e-16            1     -2.96021
-0.052336  -0.99863  -2.86952
0.052336 -0.99863 -2.86952
-0.156434 -0.987688  -2.86952
 0.156434 -0.987688  -2.86952
-0.258819 -0.965926  -2.86952
 0.258819 -0.965926  -2.86952
-0.358368  -0.93358  -2.86952
0.358368 -0.93358 -2.86952
 -0.45399 -0.891007  -2.86952
  0.45399 -0.891007  -2.86952
-0.544639 -0.838671  -2.86952
 0.544639 -0.838671  -2.86952
 -0.62932 -0.777146  -2.86952
  0.62932 -0.777146  -2.86952
-0.707107 -0.707107  -2.86952
 0.707107 -0.707107  -2.86952
-0.777146  -0.62932  -2.86952
0.777146 -0.62932 -2.86952
-0.838671 -0.544639  -2.86952
 0.838671 -0.544639  -2.86952
-0.891007  -0.45399  -2.86952
0.891007 -0.45399 -2.86952
 -0.93358 -0.358368  -2.86952
  0.93358 -0.358368  -2.86952
-0.965926 -0.258819  -2.86952
 0.965926 -0.258819  -2.86952
-0.987688 -0.156434  -2.86952
 0.987688 -0.156434  -2.86952
 -0.99863 -0.052336  -2.86952
  0.99863 -0.052336  -2.86952
-0.99863 0.052336 -2.86952
 0.99863 0.052336 -2.86952
-0.987688  0.156434  -2.86952
0.987688 0.156434 -2.86952
-0.965926  0.258819  -2.86952
0.965926 0.258819 -2.86952
-0.93358 0.358368 -2.86952
 0.93358 0.358368 -2.86952
-0.891007   0.45399  -2.86952
0.891007  0.45399 -2.86952
-0.838671  0.544639  -2.86952
0.838671 0.544639 -2.86952
-0.777146   0.62932  -2.86952
0.777146  0.62932 -2.86952
-0.707107  0.707107  -2.86952
0.707107 0.707107 -2.86952
-0.62932 0.777146 -2.86952
 0.62932 0.777146 -2.86952
-0.544639  0.838671  -2.86952
0.544639 0.838671 -2.86952
-0.45399 0.891007 -2.86952
 0.45399 0.891007 -2.86952
-0.358368   0.93358  -2.86952
0.358368  0.93358 -2.86952
-0.258819  0.965926  -2.86952
0.258819 0.965926 -2.86952
-0.156434  0.987688  -2.86952
0.156434 0.987688 -2.86952
-0.052336   0.99863  -2.86952
0.052336  0.99863 -2.86952
6.12323e-17          -1    -2.77883
-0.104528 -0.994522  -2.77883
 0.104528 -0.994522  -2.77883
-0.207912 -0.978148  -2.77883
 0.207912 -0.978148  -2.77883
-0.309017 -0.951057  -2.77883
 0.309017 -0.951057  -2.77883
-0.406737 -0.913545  -2.77883
 0.406737 -0.913545  -2.77883
     -0.5 -0.866025  -2.77883
      0.5 -0.866025  -2.77883
-0.587785 -0.809017  -2.77883
 0.587785 -0.809017  -2.77883
-0.669131 -0.743145  -2.77883
 0.669131 -0.743145  -2.77883
-0.743145 -0.669131  -2.77883
 0.743145 -0.669131  -2.77883
-0.809017 -0.587785  -2.77883
 0.809017 -0.587785  -2.77883
-0.866025      -0.5  -2.77883
0.866025     -0.5 -2.77883
-0.913545 -0.406737  -2.77883
 0.913545 -0.406737  -2.77883
-0.951057 -0.309017  -2.77883
 0.951057 -0.309017  -2.77883
-0.978148 -0.207912  -2.77883
 0.978148 -0.207912  -2.77883
-0.994522 -0.104528  -2.77883
 0.994522 -0.104528  -2.77883
          -1 -1.22465e-16     -2.77883
          1 5.55112e-17    -2.77883
-0.994522  0.104528  -2.77883
0.994522 0.104528 -2.77883
-0.978148  0.207912  -2.77883
0.978148 0.207912 -2.77883
-0.951057  0.309017  -2.77883
0.951057 0.309017 -2.77883
-0.913545  0.406737  -2.77883
0.913545 0.406737 -2.77883
-0.866025       0.5  -2.77883
0.866025      0.5 -2.77883
-0.809017  0.587785  -2.77883
0.809017 0.587785 -2.77883
-0.743145  0.669131  -2.77883
0.743145 0.669131 -2.77883
-0.669131  0.743145  -2.77883
0.669131 0.743145 -2.77883
-0.587785  0.809017  -2.77883
0.587785 0.809017 -2.77883
    -0.5 0.866025 -2.77883
     0.5 0.866025 -2.77883
-0.406737  0.913545  -2.77883
0.406737 0.913545 -2.77883
-0.309017  0.951057  -2.77883
0.309017 0.951057 -2.77883
-0.207912  0.978148  -2.77883
0.207912 0.978148 -2.77883
-0.104528  0.994522  -2.77883
0.104528 0.994522 -2.77883
-1.83697e-16            1     -2.77883
-0.052336  -0.99863  -2.68814
0.052336 -0.99863 -2.68814
-0.156434 -0.987688  -2.68814
 0.156434 -0.987688  -2.68814
-0.258819 -0.965926  -2.68814
 0.258819 -0.965926  -2.68814
-0.358368  -0.93358  -2.68814
0.358368 -0.93358 -2.68814
 -0.45399 -0.891007  -2.68814
  0.45399 -0.891007  -2.68814
-0.544639 -0.838671  -2.68814
 0.544639 -0.838671  -2.68814
 -0.62932 -0.777146  -2.68814
  0.62932 -0.777146  -2.68814
-0.707107 -0.707107  -2.68814
 0.707107 -0.707107  -2.68814
-0.777146  -0.62932  -2.68814
0.777146 -0.62932 -2.68814
-0.838671 -0.544639  -2.68814
 0.838671 -0.544639  -2.68814
-0.891007  -0.45399  -2.68814
0.891007 -0.45399 -2.68814
 -0.93358 -0.358368  -2.68814
  0.93358 -0.358368  -2.68814
-0.965926 -0.258819  -2.68814
 0.965926 -0.258819  -2.68814
-0.987688 -0.156434  -2.68814
 0.987688 -0.156434  -2.68814
 -0.99863 -0.052336  -2.68814
  0.99863 -0.052336  -2.68814
-0.99863 0.052336 -2.68814
 0.99863 0.052336 -2.68814
-0.987688  0.156434  -2.68814
0.987688 0.156434 -2.68814
-0.965926  0.258819  -2.68814
0.965926 0.258819 -2.68814
-0.93358 0.358368 -2.68814
 0.93358 0.358368 -2.68814
[...]
POINT_DATA 4260
SCALARS Field double
LOOKUP_TABLE default
-2.29394
-2.241
-2.32367
-2.15955
-2.32621
-2.05425
-2.29819
-1.93018
-2.24625
-1.78297
-2.1678
-1.61795
-2.06085
-1.44069
-1.93329
-1.24708
-1.78362
-1.04248
-1.61079
-0.832351
-1.42339
-0.612411
-1.22039
-0.387681
-1.00114
-0.163382
-0.774384
0.065028
-0.539125
0.2928
-0.294832
0.514805
-0.0502654
0.735605
0.195545
0.950481
0.442924
1.15414
0.682967
1.35096
0.916486
1.53609
1.14354
1.70402
1.35511
1.85895
1.552
1.99606
1.73435
2.10982
1.89346
2.20466
2.0307
2.27616
2.14691
2.31933
2.23438
2.33934
2.29562
2.33273
-1.93089
-2.05695
-1.78318
-2.15623
-1.61935
-2.23357
-1.43557
-2.2846
-1.23766
-2.30554
-1.03161
-2.3026
-0.813742
-2.27275
-0.589735
-2.21353
-0.365269
-2.13226
-0.13617
-2.02684
0.0925063
-1.89564
0.315649
-1.74653
0.537967
-1.57783
0.754912
-1.38833
0.961646
-1.18622
1.16302
-0.970048
1.35456
-0.73907
1.5313
-0.501851
1.69786
-0.257406
1.84965
-0.00560126
1.98144
0.244453
2.09773
0.493254
2.19396
0.740416
2.26499
0.976533
2.3156
1.202
2.34177
1.41648
2.33898
1.6109
2.31283
1.78622
2.26033
1.94289
2.17805
2.07279
-1.44357
-1.24511
-1.62912
-1.03032
-1.79582
-0.805488
-1.93825
-0.57704
-2.06087
-0.341739
-2.15899
-0.105668
-2.22852
0.125214
-2.27521
0.354893
-2.29556
0.578251
-2.2866
0.790303
-2.25496
0.996002
-2.19783
1.19115
-2.11291
1.37142
-2.00729
1.54219
-1.87858
1.69957
-1.72502
1.83916
-1.55421
1.96618
-1.3643
2.0765
-1.15435
2.16535
-0.932738
2.23766
-0.698446
2.28917
-0.451483
2.31513
-0.201072
2.3206
0.0530925
2.30188
0.310346
2.2548
0.561062
2.18529
0.805392
2.09072
1.0427
1.96807
1.26366
1.8245
1.46897
1.65872
-0.59033
-0.828469
-0.34628
-1.05414
-0.103078
-1.27051
0.142127
-1.47147
0.382866
-1.65143
0.61285
-1.81465
0.835784
-1.9562
1.04637
-2.07168
1.23966
-2.1664
1.42075
-2.23632
1.58578
-2.27787
1.73096
-2.29692
1.86235
-2.28991
1.97677
-2.2538
2.07069
-2.19491
2.15015
-2.11015
2.21178
-1.99725
2.25159
-1.86329
2.27508
-1.70606
2.27854
-1.52443
2.25761
-1.32658
2.21773
-1.11142
2.15542
-0.878958
2.06678
-0.638412
1.95797
-0.38949
1.82658
-0.132947
1.66983
0.121557
1.49515
0.374092
1.3015
0.623884
1.0874
0.861484
0.11608
0.364678
-0.137498
0.610962
-0.389227
0.848218
-0.632553
1.06989
-0.870641
1.27938
-1.09744
1.47111
-1.30739
1.64001
-1.50462
1.79117
-1.68401
1.92087
-1.84088
2.02573
-1.98002
2.11238
-2.09678
2.17839
-2.18696
2.22118
-2.25563
2.24774
-2.29842
2.25572
-2.31165
2.24212
-2.3009
2.21335
-2.26246
2.16641
-2.19363
2.09761
-2.10103
2.01282
-1.98212
1.90889
-1.83556
1.78215
-1.66929
1.63889
-1.48199
1.47679
-1.27357
1.29318
-1.05304
1.09554
-0.819951
0.882953
-0.574963
0.654051
-0.327615
0.417581
-0.0777716
0.173783
1.04148
0.804457
1.26587
0.561458
1.47101
0.30968
1.66012
0.0556839
1.82738
-0.194295
1.9675
-0.443679
2.08538
-0.686654
2.17724
-0.917798
2.23984
-1.14117
2.28013
-1.35143
2.29623
-1.54357
2.28635
-1.7218
2.25845
-1.88082
2.21121
-2.0158
2.1428
-2.13103
2.06074
-2.22143
1.96299
-2.28274
1.84677
-2.31991
1.71862
-2.32873
1.57583
-2.30614
1.41507
-2.25836
1.24277
-2.18247
1.05657
-2.07687
0.853791
-1.94915
0.641824
-1.79764
0.419626
-1.62196
0.185778
-1.43077
-0.0510381
-1.2233
-0.290628
-0.999995
-0.53346
-0.770145
1.61767
1.79698
1.41669
1.95794
1.20035
2.0947
0.974861
2.20181
0.736915
2.28396
0.492475
2.3371
0.247195
2.35788
-0.00277034
2.35328
-0.25192
2.3216
-0.495002
2.26152
-0.735947
2.18174
-0.969142
2.08181
-1.18921
1.96101
-1.39976
1.82801
-1.59485
1.6819
-1.76909
1.521
-1.92611
1.35275
-2.06025
1.17512
-2.1668
0.985254
-2.25026
0.789815
-2.30595
0.586471
-2.33052
0.372413
-2.32976
0.154813
-2.30032
-0.0676769
-2.24024
-0.296748
-2.15662
-0.523989
-2.0473
-0.749447
-1.91149
-0.973777
-1.75739
-1.18779
-1.58385
-1.39097
2.16119
2.03696
2.26061
1.8934
2.32988
1.72672
2.3736
1.54248
2.38749
1.34607
2.36796
1.13336
2.32172
0.90951
2.24691
0.679471
2.14232
0.438956
2.01691
0.193195
1.87077
-0.0526602
1.704
-0.302332
1.52626
-0.549876
1.33773
-0.789549
1.13786
-1.02441
0.935176
-1.24801
0.728488
-1.45453
0.515649
-1.64715
0.303727
-1.81976
0.0905012
-1.9674
-0.126905
-2.09416
-0.34161
-2.19499
-0.555403
-2.26619
-0.770435
-2.31309
-0.978783
-2.3318
-1.18096
-2.31988
-1.378
-2.28384
-1.56105
-2.22097
-1.7299
-2.12999
-1.88534
-2.01863
2.32244
2.34837
2.26762
2.35021
2.18864
2.32372
2.09023
2.26513
1.96767
2.18082
1.82544
2.06854
1.66785
1.92681
1.48982
1.76443
1.2957
1.58154
1.08978
1.3786
0.86744
1.16589
0.633792
0.944357
0.393975
0.714467
0.144529
0.485766
-0.108278
0.258013
-0.358448
0.0299152
-0.608654
-0.19086
-0.852112
-0.406247
-1.08284
-0.619065
-1.30373
-0.822666
-1.50843
-1.01933
-1.69179
-1.21177
-1.85756
-1.39275
-2.0003
-1.56347
-2.11589
-1.72555
-2.2091
-1.87068
-2.27544
-1.99909
-2.3119
-2.1119
-2.3244
-2.2007
-2.30968
-2.266
2.22011
2.26398
2.15132
2.28676
2.05402
2.28293
1.9344
2.25623
1.78984
2.21021
1.61841
2.13894
1.42844
2.0457
1.21964
1.93367
0.99234
1.79695
0.756873
1.63921
0.514508
1.46429
0.266327
1.26744
0.0226538
1.05377
-0.215931
0.828459
-0.449842
0.588252
-0.670696
0.339616
-0.879972
0.0885925
-1.08024
-0.167357
-1.26494
-0.421363
-1.43676
-0.667501
-1.59901
-0.908555
-1.7452
-1.13802
-1.87741
-1.3506
-1.99808
-1.5497
-2.09962
-1.72938
-2.18292
-1.88506
-2.24957
-2.02089
-2.29154
-2.13177
-2.30962
-2.21415
-2.30593
-2.27343
1.8858
1.74951
1.99875
1.59628
2.09133
1.42336
2.16647
1.2285
2.21752
1.01943
2.24691
0.79519
2.25686
0.555546
2.24021
0.31036
2.19917
0.0606457
2.13599
-0.192426
2.04422
-0.438221
1.92717
-0.675666
1.78841
-0.904481
1.62323
-1.11561
1.43677
-1.30998
1.23414
-1.48976
1.01214
-1.64828
0.777185
-1.78846
0.535076
-1.91406
0.283133
-2.01936
0.0280863
-2.10737
-0.224352
-2.18148
-0.476961
-2.23507
-0.723086
-2.2699
-0.957244
-2.28824
-1.18242
-2.28255
-1.39214
-2.25399
-1.58134
-2.20488
-1.75359
-2.12832
-1.90329
-2.02649
1.18931
1.37478
0.990915
1.54974
0.777329
1.7071
0.555885
1.84879
0.324958
1.97649
0.0835571
2.08226
-0.159284
2.1672
-0.403303
2.23227
-0.647804
2.26942
-0.882405
2.28009
-1.10605
2.26599
-1.31814
2.22044
-1.50917
2.14665
-1.67963
2.04806
-1.83119
1.91997
-1.9569
1.76745
-2.05972
1.59532
-2.14365
1.40013
-2.20354
1.18795
-2.24331
0.964084
-2.26732
0.725484
-2.27006
0.478619
-2.25437
0.228944
-2.22342
-0.0262919
-2.17041
-0.280226
-2.097
-0.527106
-2.00578
-0.769461
-1.88996
-1.00034
-1.7517
-1.21424
-1.59487
-1.41436
0.521048
0.292567
0.741932
0.0638142
0.957029
-0.167221
1.16798
-0.402174
1.36666
-0.632926
1.55375
-0.860238
1.72963
-1.08431
1.88522
-1.29553
2.02058
-1.49342
2.13585
-1.67757
2.22249
-1.83845
2.28166
-1.97633
2.31485
-2.09252
2.3154
-2.17972
2.28652
-2.24074
2.23143
-2.27961
2.14526
-2.29149
2.03278
-2.28099
1.89817
-2.25335
1.73743
-2.20414
1.55608
-2.13742
1.35871
-2.05747
1.14186
-1.95846
0.911738
-1.84282
0.673643
-1.71357
0.42494
-1.56411
0.172788
-1.39657
-0.0767574
-1.21461
-0.325844
-1.01285
-0.567195
-0.795138
-0.426241
-0.194697
-0.652362
0.044235
-0.874982
0.282797
-1.08669
0.52198
-1.28922
0.762405
-1.48384
0.994876
-1.66203
1.21896
-1.82433
1.43406
-1.97102
1.63039
-2.09301
1.80753
-2.19082
1.96529
-2.26561
2.09514
-2.30987
2.19827
-2.3262
2.27613
-2.31845
2.32211
-2.28184
2.3393
-2.22136
2.33044
-2.14288
2.29017
-2.04289
2.22263
-1.92664
2.1311
-1.79958
2.01081
-1.65706
1.86661
-1.50254
1.70243
-1.33977
1.51447
-1.16253
1.30884
-0.973059
1.09084
-0.774757
0.858055
-0.561842
0.617955
-0.337625
0.376813
-0.107326
0.132635
-1.10053
-1.30619
-0.884224
-1.49409
-0.655489
-1.66664
-0.412803
-1.826
-0.164607
-1.96479
0.0891889
-2.08476
0.348298
-2.18722
0.602779
-2.264
0.851575
-2.31624
1.09365
-2.34537
1.31918
-2.34392
1.52779
-2.31442
1.71939
-2.26045
1.88573
-2.17708
2.02819
-2.06939
2.14805
-1.94353
2.23855
-1.79659
2.30234
-1.63478
2.34134
-1.46465
2.34939
-1.28274
2.32974
-1.09376
2.28463
-0.90244
2.20851
-0.70324
2.10569
-0.498793
1.97962
-0.29241
1.82638
-0.0779008
1.65222
0.142067
1.46257
0.363095
1.25526
0.589579
1.03791
0.81677
-1.83008
-1.66995
-1.96928
-1.4862
-2.0902
-1.28606
-2.18634
-1.06818
-2.26058
-0.831622
-2.31536
-0.585419
-2.34359
-0.330086
-2.34746
-0.0663576
-2.32901
0.195694
-2.28117
0.455053
-2.20662
0.710868
-2.10878
0.95377
-1.98252
1.18385
-1.83278
1.40128
-1.66561
1.59806
-1.47834
1.7756
-1.27774
1.93473
-1.07115
2.06815
-0.856171
2.17775
-0.638757
2.26432
-0.424744
2.32069
-0.209584
2.34921
0.00337869
2.35115
0.210595
2.32042
0.418437
2.26105
0.624782
2.17636
0.82615
2.06259
1.02803
1.92625
1.22676
1.77295
1.4166
1.60058
-2.17864
-2.25923
-2.07587
-2.31162
-1.94816
-2.33947
-1.79292
-2.34613
-1.61765
-2.32562
-1.42143
-2.28124
-1.20365
-2.21592
-0.973512
-2.12329
-0.731535
-2.0065
-0.478251
-1.86903
-0.22319
-1.70559
0.0332683
-1.52095
0.290853
-1.32082
0.540921
-1.10233
0.784098
-0.872408
1.02063
-0.638714
1.24255
-0.399531
1.45096
-0.161821
1.64582
0.0675179
1.81896
0.29194
1.97131
0.507098
2.1024
0.708845
2.2041
0.903357
2.27806
1.08873
2.32495
1.26223
2.33851
1.43046
2.32289
1.59105
2.28162
1.73966
2.21127
1.88062
2.11859
2.00919
-2.33148
-2.32323
-2.31379
-2.28501
-2.27404
-2.22269
-2.20709
-2.13366
-2.11721
-2.01548
-2.00825
-1.87572
-1.8747
-1.71351
-1.72041
-1.52809
-1.54918
-1.32814
-1.35578
-1.11352
-1.14482
-0.884005
-0.921611
-0.64811
-0.682839
-0.405277
-0.435158
-0.155152
-0.186048
0.0942659
0.066048
0.343928
0.313603
0.593791
0.548977
0.835535
0.774653
1.06962
0.985194
1.29485
1.17559
1.50201
1.35143
1.69105
1.51057
1.86043
1.65063
2.0014
1.77903
2.11533
1.8946
2.20282
1.99456
2.25788
2.08484
2.28516
2.1622
2.28858
2.22116
2.26501
-2.18358
-2.09999
-2.24577
-1.99032
-2.28253
-1.85952
-2.2897
-1.71212
-2.27314
-1.5434
-2.23025
-1.35801
-2.15846
-1.1602
-2.06495
-0.945018
-1.9483
-0.717126
-1.80697
-0.481436
-1.64857
-0.234127
-1.47183
0.0186854
-1.27556
0.270131
-1.06714
0.52214
-0.845149
0.767188
-0.60887
0.997416
-0.365976
1.21472
-0.115524
1.41277
0.141771
1.58566
0.3969
1.73813
0.649485
1.86736
0.8971
1.97083
1.12956
2.05628
1.34612
2.12335
1.54466
2.17057
1.71633
2.20556
1.86281
2.22682
1.98518
2.2306
2.07814
2.22165
2.14692
2.19582
-1.68496
-1.83333
-1.51855
-1.95837
-1.33896
-2.06462
-1.14202
-2.14802
-0.933035
-2.20427
-0.716695
-2.23896
-0.488434
-2.24914
-0.253116
-2.23156
-0.0154235
-2.19243
0.228918
-2.12927
0.474395
-2.03941
0.714999
-1.92913
0.953447
-1.79598
1.18275
-1.63796
1.39545
-1.46157
1.59342
-1.26479
1.76988
-1.04694
1.91828
-0.815719
2.04254
-0.570473
2.13894
-0.312863
2.20439
-0.0527519
2.24639
0.208638
2.26475
0.467856
2.25888
0.71413
2.23771
0.946547
2.20138
1.1631
2.14808
1.35551
2.08445
1.52633
2.00787
1.67755
1.91333
1.80465
-1.11182
-0.906446
-1.30867
-0.688589
-1.49212
-0.463924
-1.65672
-0.237404
-1.80687
-0.00477382
-1.93837
0.228836
-2.04643
0.458847
-2.1359
0.68984
-2.20295
0.916806
-2.24323
1.13464
-2.26164
1.34704
-2.25443
1.54793
-2.21791
1.73076
-2.1572
1.89801
-2.06897
2.04302
-1.95078
2.15915
-1.80859
2.24979
-1.64002
2.31041
-1.44474
2.33714
-1.23074
2.33684
-0.997861
2.30891
-0.748806
2.25293
-0.494282
2.17856
-0.236126
2.08712
0.0216808
1.9785
0.26842
1.86131
0.50375
1.73482
0.726546
1.59576
0.929723
1.44922
1.11705
1.29154
-0.206257
-0.438076
0.0264164
-0.663284
0.255035
-0.885846
0.483756
-1.10094
0.707277
-1.30291
0.921117
-1.49573
1.13004
-1.67461
1.32938
-1.83389
1.5148
-1.97722
1.69097
-2.09959
1.85282
-2.19553
1.99504
-2.26874
2.12116
-2.31449
2.22525
-2.32858
2.30117
-2.31536
2.35236
-2.27083
2.37384
-2.19248
2.36113
-2.08584
2.32032
-1.94829
2.24998
-1.78009
2.14928
-1.58975
2.02789
-1.37774
1.88757
-1.14777
1.72937
-0.911134
1.5635
-0.669786
1.39106
-0.427456
1.21078
-0.193981
1.02956
0.031642
0.845003
0.249829
0.652156
0.455007
0.5119
0.735252
0.278202
0.952582
0.0387819
1.15863
-0.200646
1.34915
-0.444021
1.5291
-0.68639
1.69402
-0.921512
1.84018
-1.15254
1.97301
-1.37372
2.08836
-1.57824
2.18218
-1.76856
2.25929
-1.93869
2.31483
-2.08262
2.34371
-2.2034
2.35004
-2.29585
2.32895
-2.35571
2.2758
-2.38672
2.19613
-2.38409
2.08764
-2.3452
1.94875
-2.27528
1.78853
-2.17166
1.60845
-2.03545
1.40992
-1.87598
1.20404
-1.69442
0.993271
-1.49518
0.778162
-1.28954
0.56756
-1.07878
0.360772
-0.865432
0.154253
-0.657612
-0.0472543
-0.452408
-0.247562
1.3768
1.17734
1.55911
0.965752
1.72048
0.737381
1.8662
0.496532
1.99203
0.249035
2.09475
-0.00871593
2.18035
-0.271241
2.24534
-0.531351
2.28674
-0.791087
2.31056
-1.0437
2.31313
-1.28163
2.29071
-1.50675
2.24849
-1.71291
2.18229
-1.89449
2.08792
-2.05446
1.97084
-2.18723
1.82818
-2.28835
1.65764
-2.36049
1.46743
-2.3977
1.25817
-2.39729
1.03086
-2.36464
0.796684
-2.29761
0.558622
-2.19856
0.318443
-2.07779
0.0866295
-1.9369
-0.135787
-1.78023
-0.350571
-1.61813
-0.551564
-1.45028
-0.7419
-1.27707
-0.927302
-1.1044
1.88723
2.01485
1.73383
2.12247
1.5578
2.20622
1.36385
2.26344
1.14712
2.30057
0.911856
2.31457
0.66439
2.30325
0.401884
2.27353
0.130674
2.22272
-0.141049
2.14839
-0.414497
2.057
-0.682637
1.94538
-0.93836
1.81028
-1.18415
1.65767
-1.41466
1.4846
-1.6252
1.28841
-1.81819
1.0766
-1.98652
0.848725
-2.12467
0.604913
-2.23381
0.355696
-2.30715
0.103698
-2.34275
-0.148962
-2.34706
-0.390892
-2.31925
-0.619797
-2.263
-0.835746
-2.18913
-1.03088
-2.09894
-1.20706
-1.99549
-1.36915
-1.8872
-1.51371
-1.7713
-1.64558
2.28364
2.21682
2.32355
2.12646
2.33463
2.0062
2.32386
1.85854
2.28853
1.68817
2.22708
1.49041
2.14702
1.26987
2.0463
1.03386
1.92349
0.780562
1.78613
0.517033
1.6321
0.251751
1.45927
-0.0168824
1.27452
-0.283173
1.07533
-0.54233
0.859225
-0.79843
0.633354
-1.04653
0.39644
-1.28161
0.147655
-1.50347
-0.103516
-1.70189
-0.355472
-1.87008
-0.606593
-2.00884
-0.845489
-2.11218
-1.06942
-2.18023
-1.27732
-2.22137
-1.45985
-2.23615
-1.61741
-2.22884
-1.75346
-2.20972
-1.86365
-2.17853
-1.95277
-2.13595
-2.02814
-2.08764
2.33755
2.30283
2.3422
2.24571
2.31779
2.16396
2.26722
2.05663
2.18366
1.93165
2.06935
1.78731
1.92946
1.6228
1.76005
1.44634
1.56659
1.25653
1.35751
1.05225
1.13161
0.841331
0.895661
0.62193
0.656411
0.392163
0.40945
0.159344
0.156958
-0.078219
-0.0996809
-0.322018
-0.364429
-0.563589
-0.629019
-0.802626
-0.884788
-1.03857
-1.12757
-1.26084
-1.34504
-1.46713
-1.53141
-1.65614
-1.68966
-1.81768
-1.81644
-1.95103
-1.91451
-2.05817
-1.99386
-2.13334
-2.05549
-2.18051
-2.10276
-2.20665
-2.14405
-2.21025
-2.17649
-2.1976
2.06917
2.17033
1.94443
2.24953
1.796
2.29829
1.63234
2.31675
1.45192
2.30761
1.25433
2.26413
1.04811
2.18887
0.83207
2.08821
0.605711
1.95946
0.377488
1.80904
0.146135
1.64591
-0.0895285
1.46793
-0.321733
1.27876
-0.552165
1.07942
-0.782528
0.859672
-1.00503
0.618605
-1.22052
0.358503
-1.42965
0.0823084
-1.62304
-0.193739
-1.79957
-0.457473
-1.95849
-0.704319
-2.0897
-0.924196
-2.19206
-1.11532
-2.2665
-1.28431
-2.30591
-1.4308
-2.31301
-1.55907
-2.29369
-1.67932
-2.2459
-1.7914
-2.17649
-1.89622
-2.09451
-1.99926
1.64158
1.45698
1.80528
1.26072
1.94712
1.05162
2.06806
0.829727
2.15896
0.603698
2.21947
0.372224
2.25282
0.134953
2.25315
-0.0995216
2.22412
-0.332342
2.17399
-0.564242
2.10149
-0.787055
2.01338
-1.0023
1.91682
-1.21156
1.80424
-1.40728
1.67008
-1.59109
1.50458
-1.76455
1.29517
-1.91953
1.0498
-2.05635
0.782545
-2.1754
0.505872
-2.26737
0.238906
-2.3316
-0.00956231
-2.36874
-0.239864
-2.37083
-0.447177
-2.33953
-0.634016
-2.27935
-0.809974
-2.18702
-0.97612
-2.06885
-1.13633
-1.93396
-1.29922
-1.7826
-1.46205
-1.62239
0.836076
1.05897
0.604975
1.27415
0.366495
1.47143
0.12957
1.64868
-0.10727
1.80654
-0.344458
1.93581
-0.573687
2.03638
-0.796509
2.11311
-1.01371
2.16202
-1.21714
2.18869
-1.40837
2.20386
-1.58881
2.20713
-1.75095
2.20284
-1.89679
2.18881
-2.02844
2.1404
-2.13863
2.03558
-2.229
1.86566
-2.30117
1.64218
-2.34706
1.39551
-2.36714
1.14467
-2.36251
0.898421
-2.32519
0.668605
-2.25637
0.456832
-2.15946
0.256945
-2.02983
0.0692753
-1.87265
-0.111029
-1.69608
-0.294535
-1.5001
-0.481623
-1.29313
-0.673891
-1.08546
-0.877152
0.13714
-0.111304
0.383682
-0.352
0.626281
-0.586265
0.864583
-0.814433
1.08753
-1.02857
1.29217
-1.23095
1.47964
-1.42289
1.64173
-1.59678
1.77963
-1.75476
1.90121
-1.89843
2.00571
-2.0204
2.1021
-2.12299
2.20444
-2.20851
2.31049
-2.27021
2.40986
-2.31061
2.46156
-2.33234
2.41011
-2.32849
2.26542
-2.30088
2.07214
-2.25161
1.86161
-2.17332
1.6552
-2.06752
1.4587
-1.93714
1.27102
-1.77659
1.0961
-1.58992
0.930554
-1.38386
0.764343
-1.1572
0.5958
-0.91794
0.420123
-0.676537
0.227891
-0.434133
0.021056
-0.198703
-0.813616
-0.575143
-1.03959
-0.323533
-1.25273
-0.06958
-1.4451
0.18323
-1.61959
0.433936
-1.77816
0.67121
-1.9141
0.892088
-2.03063
1.09946
-2.13005
1.28752
-2.20558
1.46011
-2.26011
1.63072
-2.2962
1.80453
-2.3074
1.99452
-2.2968
2.21215
-2.2676
2.42917
-2.21374
2.57008
-2.1382
2.56158
-2.04414
2.43494
-1.92519
2.28275
-1.78371
2.13566
-1.62287
1.99422
-1.43678
1.86347
-1.22881
1.74221
-1.00445
1.62319
-0.760993
1.50602
-0.505237
1.38494
-0.246658
1.24859
0.0139166
1.09562
0.267685
0.923257
0.504414
0.724548
-1.43917
-1.63352
-1.2264
-1.80078
-0.996907
-1.9439
-0.751142
-2.06502
-0.501121
-2.15826
-0.251541
-2.22811
-0.00316307
-2.27798
0.233566
-2.30219
0.456665
-2.30475
0.672493
-2.28884
0.879783
-2.24848
1.08764
-2.1873
1.31105
-2.1088
1.5371
-2.00737
1.75702
-1.88678
1.98663
-1.75095
2.24283
-1.59439
2.36957
-1.42048
2.33131
-1.23306
2.2557
-1.02652
2.19025
-0.804222
2.13422
-0.570914
2.08158
-0.322674
2.0347
-0.064989
1.98915
0.194231
1.9344
0.455481
1.86809
0.710478
1.78443
0.948929
1.67282
1.17035
1.53389
1.36781
-2.07152
-1.93089
-2.183
-1.759
-2.26685
-1.56594
-2.31732
-1.35524
-2.33983
-1.12838
-2.33882
-0.898053
-2.31
-0.66941
-2.2589
-0.441753
-2.18987
-0.223126
-2.0979
-0.0133385
-1.98744
0.200563
-1.86241
0.420129
-1.71748
0.627895
-1.55688
0.785069
-1.38488
0.874452
-1.19651
1.11273
-0.995958
1.57283
-0.78767
1.88587
-0.566613
1.97811
-0.336586
2.00865
-0.102179
2.03177
0.14117
2.06122
0.388914
2.09539
0.634653
2.12704
0.88056
2.15563
1.11969
2.17504
1.34288
2.17333
1.55013
2.14821
1.73386
2.09561
1.88538
2.00695
-2.31675
-2.36618
-2.2362
-2.37783
-2.12465
-2.35718
-1.98148
-2.30903
-1.81851
-2.23011
-1.64099
-2.12761
-1.45066
-2.0073
-1.25975
-1.86562
-1.07276
-1.70842
-0.886065
-1.54039
-0.702579
-1.35676
-0.515552
-1.16222
-0.301896
-0.96113
-0.0754847
-0.748654
0.0944324
-0.529358
0.236994
-0.30798
0.514348
-0.0798739
0.983349
0.150636
1.29892
0.378798
1.46115
0.609316
1.57458
0.838029
1.68222
1.05958
1.78929
1.27759
1.90014
1.48661
2.01119
1.67916
2.11222
1.8567
2.20086
2.01228
2.2709
2.13736
2.31075
2.23353
2.31966
2.29603
-2.32716
-2.34867
-2.27087
-2.33104
-2.18381
-2.28278
-2.06285
-2.20635
-1.91618
-2.10269
-1.75083
-1.9849
-1.56481
-1.85911
-1.36576
-1.7259
-1.15968
-1.59552
-0.942848
-1.47061
-0.72074
-1.34176
-0.497966
-1.18742
-0.269703
-0.957968
-0.0405836
-0.563242
0.184791
-0.220607
0.411093
-0.0516294
0.633763
0.149572
0.847969
0.407269
1.05839
0.640672
1.26086
0.832153
1.45055
1.00138
1.63202
1.17107
1.80093
1.3454
1.95145
1.51921
2.08677
1.69325
2.20131
1.86224
2.28773
2.01436
2.34821
2.14702
2.37756
2.2553
2.36958
2.32907
-2.07417
-1.95869
-2.15821
-1.80744
-2.2088
-1.62852
-2.22357
-1.42929
-2.21338
-1.20887
-2.18292
-0.976578
-2.13383
-0.740011
-2.0793
-0.496921
-2.02492
-0.254141
-1.96851
-0.0169637
-1.91687
0.219142
-1.86974
0.449449
-1.78306
0.669698
-1.54284
0.884961
-1.06886
1.09088
-0.700191
1.28292
-0.58609
1.46594
-0.479634
1.63577
-0.290433
1.78785
-0.0753466
1.9272
0.136037
2.05011
0.343204
2.15189
0.55054
2.23721
0.765751
2.30194
0.987723
2.34036
1.2076
2.35605
1.42414
2.34447
1.63171
2.29966
1.81837
2.22597
1.98253
2.12121
-1.46453
-1.63348
-1.2678
-1.76799
-1.04965
-1.87478
-0.809146
-1.95464
-0.556585
-2.00728
-0.300781
-2.04546
-0.0410431
-2.07505
0.214071
-2.09667
0.458056
-2.12193
0.694624
-2.15503
0.918541
-2.1894
1.12571
-2.2339
1.32165
-2.26773
1.5025
-2.15927
1.66442
-1.86306
1.81287
-1.60497
1.94397
-1.41839
2.05357
-1.21383
2.14703
-0.99002
2.22091
-0.76881
2.27118
-0.55885
2.30347
-0.345559
2.31469
-0.122161
2.30058
0.108561
2.2663
0.349861
2.20846
0.598586
2.1222
0.843982
2.01243
1.08418
1.87662
1.31432
1.71119
1.52337
-0.839607
-0.618551
-1.04047
-0.374842
-1.21714
-0.118455
-1.36541
0.14157
-1.4949
0.404965
-1.60905
0.661573