# vtk DataFile Version 3.1
vtk output
ASCII
DATASET POLYDATA
POINTS 4260 FLOAT
2.83277e-16          -1    -3.14159
-0.104528 -0.994522  -3.14159
 0.104528 -0.994522  -3.14159
-0.207912 -0.978148  -3.14159
 0.207912 -0.978148  -3.14159
-0.309017 -0.951057  -3.14159
 0.309017 -0.951057  -3.14159
-0.406737 -0.913545  -3.14159
 0.406737 -0.913545  -3.14159
     -0.5 -0.866025  -3.14159
      0.5 -0.866025  -3.14159
-0.587785 -0.809017  -3.14159
 0.587785 -0.809017  -3.14159
-0.669131 -0.743145  -3.14159
 0.669131 -0.743145  -3.14159
-0.743145 -0.669131  -3.14159
 0.743145 -0.669131  -3.14159
-0.809017 -0.587785  -3.14159
 0.809017 -0.587785  -3.14159
-0.866025      -0.5  -3.14159
0.866025     -0.5 -3.14159
-0.913545 -0.406737  -3.14159
 0.913545 -0.406737  -3.14159
-0.951057 -0.309017  -3.14159
 0.951057 -0.309017  -3.14159
-0.978148 -0.207912  -3.14159
 0.978148 -0.207912  -3.14159
-0.994522 -0.104528  -3.14159
 0.994522 -0.104528  -3.14159
          -1 -5.66554e-16     -3.14159
       1        0 -3.14159
-0.994522  0.104528  -3.14159
0.994522 0.104528 -3.14159
-0.978148  0.207912  -3.14159
0.978148 0.207912 -3.14159
-0.951057  0.309017  -3.14159
0.951057 0.309017 -3.14159
-0.913545  0.406737  -3.14159
0.913545 0.406737 -3.14159
-0.866025       0.5  -3.14159
0.866025      0.5 -3.14159
-0.809017  0.587785  -3.14159
0.809017 0.587785 -3.14159
-0.743145  0.669131  -3.14159
0.743145 0.669131 -3.14159
-0.669131  0.743145  -3.14159
0.669131 0.743145 -3.14159
-0.587785  0.809017  -3.14159
0.587785 0.809017 -3.14159
    -0.5 0.866025 -3.14159
     0.5 0.866025 -3.14159
-0.406737  0.913545  -3.14159
0.406737 0.913545 -3.14159
-0.309017  0.951057  -3.14159
0.309017 0.951057 -3.14159
-0.207912  0.978148  -3.14159
0.207912 0.978148 -3.14159
-0.104528  0.994522  -3.14159
0.104528 0.994522 -3.14159
-1.83697e-16            1     -3.14159
-0.052336  -0.99863   -3.0509
0.052336 -0.99863  -3.0509
-0.156434 -0.987688   -3.0509
 0.156434 -0.987688   -3.0509
-0.258819 -0.965926   -3.0509
 0.258819 -0.965926   -3.0509
-0.358368  -0.93358   -3.0509
0.358368 -0.93358  -3.0509
 -0.45399 -0.891007   -3.0509
  0.45399 -0.891007   -3.0509
-0.544639 -0.838671   -3.0509
 0.544639 -0.838671   -3.0509
 -0.62932 -0.777146   -3.0509
  0.62932 -0.777146   -3.0509
-0.707107 -0.707107   -3.0509
 0.707107 -0.707107   -3.0509
-0.777146  -0.62932   -3.0509
0.777146 -0.62932  -3.0509
-0.838671 -0.544639   -3.0509
 0.838671 -0.544639   -3.0509
-0.891007  -0.45399   -3.0509
0.891007 -0.45399  -3.0509
 -0.93358 -0.358368   -3.0509
  0.93358 -0.358368   -3.0509
-0.965926 -0.258819   -3.0509
 0.965926 -0.258819   -3.0509
-0.987688 -0.156434   -3.0509
 0.987688 -0.156434   -3.0509
 -0.99863 -0.052336   -3.0509
  0.99863 -0.052336   -3.0509
-0.99863 0.052336  -3.0509
 0.99863 0.052336  -3.0509
-0.987688  0.156434   -3.0509
0.987688 0.156434  -3.0509
-0.965926  0.258819   -3.0509
0.965926 0.258819  -3.0509
-0.93358 0.358368  -3.0509
 0.93358 0.358368  -3.0509
-0.891007   0.45399   -3.0509
0.891007  0.45399  -3.0509
-0.838671  0.544639   -3.0509
0.838671 0.544639  -3.0509
-0.777146   0.62932   -3.0509
0.777146  0.62932  -3.0509
-0.707107  0.707107   -3.0509
0.707107 0.707107  -3.0509
-0.62932 0.777146  -3.0509
 0.62932 0.777146  -3.0509
-0.544639  0.838671   -3.0509
0.544639 0.838671  -3.0509
-0.45399 0.891007  -3.0509
 0.45399 0.891007  -3.0509
-0.358368   0.93358   -3.0509
0.358368  0.93358  -3.0509
-0.258819  0.965926   -3.0509
0.258819 0.965926  -3.0509
-0.156434  0.987688   -3.0509
0.156434 0.987688  -3.0509
-0.052336   0.99863   -3.0509
0.052336  0.99863  -3.0509
6.12323e-17          -1    -2.96021
-0.104528 -0.994522  -2.96021
 0.104528 -0.994522  -2.96021
-0.207912 -0.978148  -2.96021
 0.207912 -0.978148  -2.96021
-0.309017 -0.951057  -2.96021
 0.309017 -0.951057  -2.96021
-0.406737 -0.913545  -2.96021
 0.406737 -0.913545  -2.96021
     -0.5 -0.866025  -2.96021
      0.5 -0.866025  -2.96021
-0.587785 -0.809017  -2.96021
 0.587785 -0.809017  -2.96021
-0.669131 -0.743145  -2.96021
 0.669131 -0.743145  -2.96021
-0.743145 -0.669131  -2.96021
 0.743145 -0.669131  -2.96021
-0.809017 -0.587785  -2.96021
 0.809017 -0.587785  -2.96021
-0.866025      -0.5  -2.96021
0.866025     -0.5 -2.96021
-0.913545 -0.406737  -2.96021
 0.913545 -0.406737  -2.96021
-0.951057 -0.309017  -2.96021
 0.951057 -0.309017  -2.96021
-0.978148 -0.207912  -2.96021
 0.978148 -0.207912  -2.96021
-0.994522 -0.104528  -2.96021
 0.994522 -0.104528  -2.96021
          -1 -5.66554e-16     -2.96021
          1 2.77556e-17    -2.96021
-0.994522  0.104528  -2.96021
0.994522 0.104528 -2.96021
-0.978148  0.207912  -2.96021
0.978148 0.207912 -2.96021
-0.951057  0.309017  -2.96021
0.951057 0.309017 -2.96021
-0.913545  0.406737  -2.96021
0.913545 0.406737 -2.96021
-0.866025       0.5  -2.96021
0.866025      0.5 -2.96021
-0.809017  0.587785  -2.96021
0.809017 0.587785 -2.96021
-0.743145  0.669131  -2.96021
0.743145 0.669131 -2.96021
-0.669131  0.743145  -2.96021
0.669131 0.743145 -2.96021
-0.587785  0.809017  -2.96021
0.587785 0.809017 -2.96021
    -0.5 0.866025 -2.96021
     0.5 0.866025 -2.96021
-0.406737  0.913545  -2.96021
0.406737 0.913545 -2.96021
-0.309017  0.951057  -2.96021
0.309017 0.951057 -2.96021
-0.207912  0.978148  -2.96021
0.207912 0.978148 -2.96021
-0.104528  0.994522  -2.96021
0.104528 0.994522 -2.96021
-1.83697e-16            1     -2.96021
-0.052336  -0.99863  -2.86952
0.052336 -0.99863 -2.86952
-0.156434 -0.987688  -2.86952
 0.156434 -0.987688  -2.86952
-0.258819 -0.965926  -2.86952
 0.258819 -0.965926  -2.86952
-0.358368  -0.93358  -2.86952
0.358368 -0.93358 -2.86952
 -0.45399 -0.891007  -2.86952
  0.45399 -0.891007  -2.86952
-0.544639 -0.838671  -2.86952
 0.544639 -0.838671  -2.86952
 -0.62932 -0.777146  -2.86952
  0.62932 -0.777146  -2.86952
-0.707107 -0.707107  -2.86952
 0.707107 -0.707107  -2.86952
-0.777146  -0.62932  -2.86952
0.777146 -0.62932 -2.86952
-0.838671 -0.544639  -2.86952
 0.838671 -0.544639  -2.86952
-0.891007  -0.45399  -2.86952
0.891007 -0.45399 -2.86952
 -0.93358 -0.358368  -2.86952
  0.93358 -0.358368  -2.86952
-0.965926 -0.258819  -2.86952
 0.965926 -0.258819  -2.86952
-0.987688 -0.156434  -2.86952
 0.987688 -0.156434  -2.86952
 -0.99863 -0.052336  -2.86952
  0.99863 -0.052336  -2.86952
-0.99863 0.052336 -2.86952
 0.99863 0.052336 -2.86952
-0.987688  0.156434  -2.86952
0.987688 0.156434 -2.86952
-0.965926  0.258819  -2.86952
0.965926 0.258819 -2.86952
-0.93358 0.358368 -2.86952
 0.93358 0.358368 -2.86952
-0.891007   0.45399  -2.86952
0.891007  0.45399 -2.86952
-0.838671  0.544639  -2.86952
0.838671 0.544639 -2.86952
-0.777146   0.62932  -2.86952
0.777146  0.62932 -2.86952
-0.707107  0.707107  -2.86952
0.707107 0.707107 -2.86952
-0.62932 0.777146 -2.86952
 0.62932 0.777146 -2.86952
-0.544639  0.838671  -2.86952
0.544639 0.838671 -2.86952
-0.45399 0.891007 -2.86952
 0.45399 0.891007 -2.86952
-0.358368   0.93358  -2.86952
0.358368  0.93358 -2.86952
-0.258819  0.965926  -2.86952
0.258819 0.965926 -2.86952
-0.156434  0.987688  -2.86952
0.156434 0.987688 -2.86952
-0.052336   0.99863  -2.86952
0.052336  0.99863 -2.86952
6.12323e-17          -1    -2.77883
-0.104528 -0.994522  -2.77883
 0.104528 -0.994522  -2.77883
-0.207912 -0.978148  -2.77883
 0.207912 -0.978148  -2.77883
-0.309017 -0.951057  -2.77883
 0.309017 -0.951057  -2.77883
-0.406737 -0.913545  -2.77883
 0.406737 -0.913545  -2.77883
     -0.5 -0.866025  -2.77883
      0.5 -0.866025  -2.77883
-0.587785 -0.809017  -2.77883
 0.587785 -0.809017  -2.77883
-0.669131 -0.743145  -2.77883
 0.669131 -0.743145  -2.77883
-0.743145 -0.669131  -2.77883
 0.743145 -0.669131  -2.77883
-0.809017 -0.587785  -2.77883
 0.809017 -0.587785  -2.77883
-0.866025      -0.5  -2.77883
0.866025     -0.5 -2.77883
-0.913545 -0.406737  -2.77883
 0.913545 -0.406737  -2.77883
-0.951057 -0.309017  -2.77883
 0.951057 -0.309017  -2.77883
-0.978148 -0.207912  -2.77883
 0.978148 -0.207912  -2.77883
-0.994522 -0.104528  -2.77883
 0.994522 -0.104528  -2.77883
          -1 -1.22465e-16     -2.77883
          1 5.55112e-17    -2.77883
-0.994522  0.104528  -2.77883
0.994522 0.104528 -2.77883
-0.978148  0.207912  -2.77883
0.978148 0.207912 -2.77883
-0.951057  0.309017  -2.77883
0.951057 0.309017 -2.77883
-0.913545  0.406737  -2.77883
0.913545 0.406737 -2.77883
-0.866025       0.5  -2.77883
0.866025      0.5 -2.77883
-0.809017  0.587785  -2.77883
0.809017 0.587785 -2.77883
-0.743145  0.669131  -2.77883
0.743145 0.669131 -2.77883
-0.669131  0.743145  -2.77883
0.669131 0.743145 -2.77883
-0.587785  0.809017  -2.77883
0.587785 0.809017 -2.77883
    -0.5 0.866025 -2.77883
     0.5 0.866025 -2.77883
-0.406737  0.913545  -2.77883
0.406737 0.913545 -2.77883
-0.309017  0.951057  -2.77883
0.309017 0.951057 -2.77883
-0.207912  0.978148  -2.77883
0.207912 0.978148 -2.77883
-0.104528  0.994522  -2.77883
0.104528 0.994522 -2.77883
-1.83697e-16            1     -2.77883
-0.052336  -0.99863  -2.68814
0.052336 -0.99863 -2.68814
-0.156434 -0.987688  -2.68814
 0.156434 -0.987688  -2.68814
-0.258819 -0.965926  -2.68814
 0.258819 -0.965926  -2.68814
-0.358368  -0.93358  -2.68814
0.358368 -0.93358 -2.68814
 -0.45399 -0.891007  -2.68814
  0.45399 -0.891007  -2.68814
-0.544639 -0.838671  -2.68814
 0.544639 -0.838671  -2.68814
 -0.62932 -0.777146  -2.68814
  0.62932 -0.777146  -2.68814
-0.707107 -0.707107  -2.68814
 0.707107 -0.707107  -2.68814
-0.777146  -0.62932  -2.68814
0.777146 -0.62932 -2.68814
-0.838671 -0.544639  -2.68814
 0.838671 -0.544639  -2.68814
-0.891007  -0.45399  -2.68814
0.891007 -0.45399 -2.68814
 -0.93358 -0.358368  -2.68814
  0.93358 -0.358368  -2.68814
-0.965926 -0.258819  -2.68814
 0.965926 -0.258819  -2.68814
-0.987688 -0.156434  -2.68814
 0.987688 -0.156434  -2.68814
 -0.99863 -0.052336  -2.68814
  0.99863 -0.052336  -2.68814
-0.99863 0.052336 -2.68814
 0.99863 0.052336 -2.68814
-0.987688  0.156434  -2.68814
0.987688 0.156434 -2.68814
-0.965926  0.258819  -2.68814
0.965926 0.258819 -2.68814
-0.93358 0.358368 -2.68814
 0.93358 0.358368 -2.68814
[...]
POINT_DATA 4260
SCALARS Field double
LOOKUP_TABLE default
-2.25244
-2.1813
-2.30711
-2.09833
-2.33626
-1.99574
-2.34561
-1.87994
-2.32946
-1.75293
-2.27901
-1.60478
-2.20152
-1.44061
-2.09406
-1.26224
-1.95135
-1.06083
-1.78431
-0.843473
-1.59349
-0.614686
-1.37631
-0.368746
-1.14519
-0.115631
-0.901285
0.137664
-0.641686
0.394966
-0.377784
0.645458
-0.109754
0.882214
0.165894
1.10991
0.437951
1.31954
0.705513
1.50659
0.970707
1.67839
1.22088
1.82883
1.45369
1.95607
1.67045
2.06942
1.85881
2.16415
2.01788
2.23878
2.15151
2.30188
2.2509
2.34717
2.31912
2.37098
2.36379
2.37935
-1.6258
-1.7656
-1.47414
-1.90071
-1.31714
-2.02554
-1.15635
-2.12966
-0.98109
-2.21722
-0.795514
-2.28108
-0.600411
-2.31096
-0.386087
-2.31276
-0.159171
-2.28256
0.0759006
-2.21407
0.3245
-2.11721
0.575859
-1.99168
0.822015
-1.83389
1.06581
-1.65506
1.29552
-1.45531
1.50364
-1.23066
1.69476
-0.991495
1.86014
-0.737509
1.99606
-0.465046
2.111
-0.185518
2.20023
0.099303
2.2634
0.390353
2.31137
0.673601
2.3407
0.945057
2.35105
1.20447
2.3518
1.43826
2.33714
1.64445
2.30356
1.82625
2.25701
1.97467
2.18862
2.09281
-0.797048
-0.602901
-0.997632
-0.417329
-1.19668
-0.22946
-1.3994
-0.0425063
-1.59804
0.144407
-1.77992
0.342975
-1.94719
0.548584
-2.0913
0.758642
-2.20094
0.979885
-2.28138
1.2022
-2.32847
1.41769
-2.33571
1.62867
-2.31253
1.82237
-2.25806
1.99015
-2.16767
2.13546
-2.05114
2.24866
-1.90717
2.32562
-1.7304
2.37499
-1.52996
2.39273
-1.30505
2.37983
-1.05206
2.34898
-0.782985
2.29882
-0.50091
2.2313
-0.206467
2.15802
0.0847692
2.07506
0.367329
1.9804
0.639999
1.88084
0.888891
1.76772
1.11227
1.63506
1.3142
1.48698
0.368905
0.161832
0.563713
-0.0669972
0.742673
-0.31333
0.907468
-0.566519
1.07154
-0.829011
1.23271
-1.09074
1.39128
-1.33724
1.55686
-1.56961
1.72178
-1.77917
1.88
-1.95493
2.03489
-2.10271
2.17383
-2.21904
2.28764
-2.29757
2.37875
-2.34721
2.43607
-2.36613
2.45409
-2.34807
2.44038
-2.30076
2.39021
-2.22113
2.30459
-2.10228
2.19697
-1.95237
2.06747
-1.77058
1.92015
-1.55398
1.76929
-1.31571
1.61373
-1.06046
1.45423
-0.79029
1.29996
-0.521705
1.14394
-0.260501
0.981017
-0.00732524
0.815213
0.225351
0.636179
0.437733
1.2895
1.4577
1.09148
1.59683
0.869264
1.72055
0.616083
1.82803
0.339027
1.92204
0.0514445
2.01526
-0.247069
2.10334
-0.545502
2.18345
-0.829357
2.2617
-1.10055
2.32734
-1.35196
2.37225
-1.57422
2.39903
-1.7743
2.39593
-1.94948
2.35621
-2.09306
2.28598
-2.21261
2.17891
-2.30445
2.03471
-2.36003
1.86607
-2.3847
1.67297
-2.37372
1.46019
-2.31921
1.24356
-2.22913
1.02418
-2.10343
0.805635
-1.94043
0.600159
-1.75457
0.403639
-1.55165
0.213318
-1.33412
0.0347486
-1.11787
-0.141995
-0.907195
-0.323788
-0.700362
-0.506934
2.11502
2.00274
2.19967
1.85072
2.2554
1.66051
2.28581
1.44055
2.30549
1.18682
2.31275
0.908396
2.308
0.61979
2.30069
0.320593
2.28302
0.0204891
2.24932
-0.268105
2.20391
-0.549553
2.13581
-0.81929
2.03832
-1.06973
1.91689
-1.30856
1.76391
-1.53277
1.57757
-1.7342
1.36899
-1.91803
1.13671
-2.0781
0.88456
-2.20341
0.628131
-2.29739
0.36901
-2.35447
0.11214
-2.36679
-0.128062
-2.34301
-0.353075
-2.28434
-0.562773
-2.19028
-0.748912
-2.07579
-0.919394
-1.94642
-1.08001
-1.80332
-1.22719
-1.65996
-1.37122
-1.51762
2.43707
2.44514
2.39262
2.41958
2.31488
2.37514
2.19408
2.31123
2.03411
2.23029
1.84548
2.14429
1.62539
2.04814
1.38283
1.93889
1.13106
1.82321
0.867353
1.69191
0.598135
1.53953
0.3325
1.37215
0.0632456
1.18207
-0.207213
0.966883
-0.472063
0.736687
-0.738291
0.488543
-1.00127
0.224729
-1.25037
-0.0406114
-1.48793
-0.307107
-1.70547
-0.570429
-1.89038
-0.815998
-2.04528
-1.04439
-2.16492
-1.25379
-2.2424
-1.4337
-2.28743
-1.58962
-2.30217
-1.72515
-2.28629
-1.83516
-2.25386
-1.92942
-2.20856
-2.0141
-2.14875
-2.0846
2.29037
2.36715
2.19209
2.40869
2.07141
2.41372
1.93134
2.38723
1.78498
2.32121
1.62874
2.22056
1.46142
2.096
1.29144
1.9437
1.11114
1.77028
0.916433
1.58576
0.714522
1.38375
0.49846
1.16684
0.266331
0.941075
0.0284099
0.697438
-0.218593
0.437678
-0.473142
0.169429
-0.722223
-0.11223
-0.96702
-0.400238
-1.20485
-0.681397
-1.4226
-0.955775
-1.62203
-1.21372
-1.8018
-1.44235
-1.9511
-1.64475
-2.0744
-1.81679
-2.1737
-1.95275
-2.242
-2.0629
-2.28742
-2.1493
-2.31507
-2.21045
-2.32024
-2.25822
-2.31174
-2.29354
1.76937
1.60199
1.91741
1.41815
2.04771
1.23115
2.14758
1.03781
2.21675
0.837561
2.26112
0.639383
2.27299
0.435932
2.25643
0.223425
2.22041
0.00932776
2.15836
-0.213075
2.07317
-0.445229
1.97102
-0.676202
1.84201
-0.908657
1.6858
-1.14047
1.50686
-1.35833
1.29612
-1.56374
1.05627
-1.75491
0.796903
-1.92017
0.515651
-2.06323
0.221728
-2.18479
-0.0700666
-2.27578
-0.358939
-2.34195
-0.635517
-2.38574
-0.887893
-2.39977
-1.12032
-2.39118
-1.32985
-2.36373
-1.51131
-2.31143
-1.6746
-2.24235
-1.82056
-2.16051
-1.94569
-2.05947
0.742557
0.962054
0.52773
1.17263
0.314736
1.37131
0.103372
1.55999
-0.0973932
1.72633
-0.29546
1.87015
-0.495546
1.99707
-0.691459
2.09837
-0.891339
2.17603
-1.0977
2.23623
-1.3001
2.26912
-1.50109
2.27397
-1.69772
2.25382
-1.87534
2.19666
-2.03418
2.10091
-2.17145
1.97117
-2.27517
1.7997
-2.34975
1.59098
-2.39751
1.35663
-2.41164
1.09616
-2.40061
0.819698
-2.36942
0.542118
-2.31261
0.263591
-2.23849
-0.00787246
-2.15103
-0.261862
-2.04358
-0.50371
-1.92316
-0.731021
-1.79267
-0.938363
-1.64493
-1.13456
-1.48632
-1.31891
-0.237306
-0.461689
-0.000595881
-0.67277
0.250232
-0.860842
0.500764
-1.03389
0.747466
-1.19756
0.992157
-1.34763
1.22247
-1.49502
1.43778
-1.64531
1.64293
-1.79083
1.82769
-1.93625
1.99168
-2.07947
2.13839
-2.2054
2.25533
-2.31277
2.33915
-2.39657
2.39127
-2.44245
2.39915
-2.45311
2.36144
-2.43015
2.28388
-2.36733
2.16054
-2.27508
1.99734
-2.16129
1.80699
-2.02385
1.58949
-1.87433
1.3544
-1.71927
1.11535
-1.55355
0.870983
-1.38459
0.627691
-1.21479
0.394625
-1.03578
0.165939
-0.852665
-0.0558882
-0.666538
-0.264826
-0.468831
-1.39052
-1.18332
-1.56232
-0.952567
-1.70507
-0.701355
-1.82368
-0.429311
-1.91461
-0.151584
-1.99117
0.128093
-2.06252
0.411917
-2.12545
0.68793
-2.18926
0.955348
-2.25565
1.21843
-2.31186
1.46578
-2.35729
1.69506
-2.38569
1.90781
-2.37999
2.08994
-2.33955
2.2368
-2.2627
2.34939
-2.14075
2.41577
-1.9833
2.43544
-1.7991
2.41534
-1.5884
2.35072
-1.36636
2.24795
-1.14353
2.11943
-0.918405
1.96432
-0.701257
1.79058
-0.495989
1.60999
-0.294404
1.41967
-0.100761
1.22477
0.0853677
1.03372
0.274233
0.840596
0.461943
0.647978
-2.09837
-2.21445
-1.94345
-2.2935
-1.74648
-2.32999
-1.52201
-2.337
-1.27493
-2.32539
-1.00525
-2.29562
-0.727444
-2.26233
-0.44402
-2.23306
-0.151175
-2.20051
0.140468
-2.16825
0.430531
-2.13204
0.723073
-2.0744
1.00593
-1.99229
1.27531
-1.88004
1.53151
-1.72439
1.7597
-1.531
1.9548
-1.30602
2.11808
-1.04892
2.23848
-0.776292
2.3162
-0.501735
2.35866
-0.2278
2.36128
0.0309103
2.32968
0.266776
2.27491
0.485553
2.19455
0.681963
2.09477
0.856837
1.98574
1.02196
1.86353
1.17551
1.73259
1.31902
1.601
1.46249
-2.52393
-2.47636
-2.52027
-2.38742
-2.47498
-2.25938
-2.39692
-2.09181
-2.28691
-1.90049
-2.16255
-1.6899
-2.03645
-1.45802
-1.90771
-1.21639
-1.78667
-0.964648
-1.67473
-0.696354
-1.55798
-0.420361
-1.43439
-0.136631
-1.29655
0.158577
-1.1272
0.452356
-0.926869
0.739658
-0.696415
1.01991
-0.431013
1.27817
-0.144921
1.50928
0.148346
1.71491
0.444266
1.88468
0.724568
2.01888
0.977254
2.12451
1.20399
2.19626
1.39631
2.2383
1.55335
2.25997
1.68689
2.25734
1.7964
2.23531
1.88563
2.20309
1.96711
2.15625
2.03826
2.09884
-2.4308
-2.3522
-2.46595
-2.23386
-2.45314
-2.07276
-2.40638
-1.88507
-2.33037
-1.6846
-2.22466
-1.47439
-2.10291
-1.27098
-1.96608
-1.08282
-1.8076
-0.902612
-1.63452
-0.733444
-1.44309
-0.570294
-1.22455
-0.395239
-0.986692
-0.205554
-0.729921
0.00314174
-0.451471
0.241742
-0.165207
0.501398
0.122697
0.772459
0.411148
1.0521
0.685432
1.32123
0.940611
1.56509
1.17857
1.78147
1.38918
1.95771
1.57223
2.08947
1.73369
2.18651
1.86707
2.24783
1.9751
2.27827
2.06583
2.29266
2.13452
2.29113
2.18559
2.27608
2.228
2.25704
-1.81562
-1.95559
-1.63301
-2.06199
-1.41854
-2.13657
-1.18235
-2.17825
-0.926548
-2.20203
-0.669887
-2.21108
-0.425604
-2.20096
-0.192889
-2.17992
0.0181641
-2.14329
0.206706
-2.07924
0.387092
-1.99081
0.561275
-1.87225
0.735931
-1.71422
0.926744
-1.525
1.13084
-1.30659
1.34466
-1.0577
1.57035
-0.793009
1.79165
-0.519328
1.99422
-0.237743
2.17419
0.0377021
2.31559
0.302393
2.41023
0.558222
2.46452
0.794867
2.47524
1.01127
2.44659
1.21222
2.39446
1.39027
2.32122
1.54742
2.23211
1.69135
2.13952
1.8175
2.0397
1.93061
-0.986523
-0.772222
-1.17684
-0.53749
-1.33852
-0.278988
-1.48532
-0.0124866
-1.6212
0.248963
-1.74416
0.5034
-1.86559
0.735476
-1.98321
0.938069
-2.08593
1.1196
-2.17553
1.27756
-2.24244
1.41682
-2.27142
1.5543
-2.26402
1.69082
-2.2151
1.82831
-2.11685
1.97508
-1.97921
2.1201
-1.80609
2.25262
-1.59733
2.37018
-1.36751
2.45585
-1.12317
2.49883
-0.864722
2.50228
-0.605287
2.45978
-0.349215
2.37339
-0.0949409
2.25856
0.146704
2.11872
0.373844
1.96142
0.590551
1.80215
0.789275
1.64008
0.9725
1.4754
1.14878
1.31459
0.209715
-0.00438378
0.439885
-0.212457
0.676672
-0.416534
0.911952
-0.615007
1.14617
-0.821858
1.36328
-1.03838
1.55301
-1.2572
1.71892
-1.483
1.85304
-1.70682
1.9558
-1.91157
2.04175
-2.09482
2.11175
-2.24532
2.17046
-2.34796
2.23087
-2.40573
2.28735
-2.41618
2.33425
-2.37389
2.3729
-2.2902
2.38798
-2.16989
2.36824
-2.01255
2.31478
-1.83145
2.21817
-1.63191
2.0776
-1.41345
1.90672
-1.18848
1.70865
-0.961493
1.49222
-0.731618
1.27563
-0.510202
1.06134
-0.299314
0.852598
-0.0944531
0.658215
0.0981478
0.470289
0.282899
1.16357
1.35089
0.97018
1.53058
0.774497
1.70894
0.562522
1.8738
0.330922
2.01637
0.0832286
2.13921
-0.190103
2.2311
-0.484365
2.28838
-0.785363
2.32179
-1.09165
2.32959
-1.39013
2.31597
-1.6615
2.29583
-1.90327
2.26709
-2.10636
2.22865
-2.25864
2.18638
-2.36584
2.1282
-2.42821
2.04427
-2.44168
1.93532
-2.41711
1.78976
-2.35823
1.60387
-2.26298
1.38868
-2.14252
1.14559
-2.0009
0.883327
-1.83731
0.621893
-1.66431
0.36677
-1.48709
0.124864
-1.30544
-0.0914827
-1.13056
-0.287801
-0.963281
-0.469301
-0.796913
-0.63475
2.04667
1.92872
2.15423
1.7885
2.24475
1.62339
2.31421
1.43545
2.36811
1.21151
2.39576
0.951497
2.39223
0.664307
2.36577
0.346432
2.31171
0.00793931
2.23219
-0.332785
2.1417
-0.672202
2.03932
-0.997837
1.92681
-1.29266
1.81383
-1.55737
1.69178
-1.78708
1.55334
-1.97289
1.40015
-2.12202
1.21955
-2.23529
1.00526
-2.30756
0.765203
-2.34702
0.497775
-2.35489
0.209948
-2.32707
-0.0781017
-2.27324
-0.358894
-2.19736
-0.622014
-2.09958
-0.85074
-1.99356
-1.04664
-1.88517
-1.2123
-1.77393
-1.34565
-1.66916
-1.46078
-1.56837
2.423
2.43965
2.37979
2.43029
2.31311
2.40488
2.20907
2.3559
2.06519
2.28018
1.88615
2.18616
1.66293
2.06792
1.40022
1.92604
1.11169
1.77388
0.797247
1.61032
0.468051
1.43831
0.141713
1.27007
-0.18083
1.09997
-0.491566
0.923473
-0.777964
0.744024
-1.04431
0.548861
-1.28869
0.329794
-1.5032
0.0915058
-1.69354
-0.171653
-1.85813
-0.456326
-1.98872
-0.744374
-2.08992
-1.02841
-2.16072
-1.29584
-2.19647
-1.52581
-2.20746
-1.71492
-2.19943
-1.86114
-2.17462
-1.959
-2.14775
-2.02158
-2.12407
-2.06118
-2.10054
-2.08221
2.33658
2.41135
2.24174
2.45335
2.12225
2.46047
1.9777
2.43612
1.81852
2.36824
1.63943
2.25741
1.44086
2.11229
1.23578
1.92737
1.02264
1.7094
0.804919
1.4726
0.59652
1.21541
0.394181
0.945202
0.196178
0.674997
0.00844525
0.401001
-0.180788
0.126198
-0.380539
-0.140279
-0.588808
-0.403639
-0.815698
-0.661692
-1.06296
-0.904235
-1.31693
-1.13258
-1.57321
-1.341
-1.81981
-1.51806
-2.03359
-1.66632
-2.20679
-1.78505
-2.33175
-1.87194
-2.39731
-1.94048
-2.41243
-1.99932
-2.38788
-2.05232
-2.32936
-2.11347
-2.2569
-2.18449
1.86717
1.69862
2.01011
1.50528
2.13172
1.29905
2.21981
1.07557
2.27389
0.835883
2.30016
0.5932
2.28939
0.345857
2.24433
0.0977047
2.17492
-0.136072
2.07502
-0.356753
1.94858
-0.563226
1.80583
-0.746392
1.6403
-0.915723
1.45357
-1.07936
1.25381
-1.23639
1.03404
-1.4005
0.794696
-1.57881
0.544708
-1.76375
0.281708
-1.95682
0.0116305
-2.15017
-0.250692
-2.32189
-0.501414
-2.46254
-0.731608
-2.55998
-0.929307
-2.59665
-1.09893
-2.57498
-1.24376
-2.50062
-1.36656
-2.37662
-1.48504
-2.22392
-1.60966
-2.06085
-1.74317
-1.89526
0.881396
1.09668
0.656654
1.29137
0.417398
1.46604
0.164317
1.62726
-0.0896506
1.76514
-0.346711
1.88134
-0.603115
1.98372
-0.843013
2.063
-1.06632
2.11996
-1.26939
2.1612
-1.43961
2.17582
-1.583
2.16191
-1.70483
2.12443
-1.80281
2.05266
-1.89176
1.94406
-1.98256
1.80451
-2.07342
1.62723
-2.17312
1.4136
-2.28088
1.1756
-2.38008
0.916677
-2.46385
0.64846
-2.51915
0.3903
-2.52395
0.148741
-2.47406
-0.0680771
-2.36775
-0.252514
-2.20155
-0.415383
-1.99269
-0.566625
-1.75962
-0.714368
-1.51398
-0.878519
-1.27873
-1.06755
-0.0738798
-0.299011
0.144096
-0.532929
0.362787
-0.764689
0.573689
-0.998562
0.779953
-1.23231
0.990435
-1.45085
1.19607
-1.65417
1.39759
-1.83727
1.60036
-1.98473
1.79063
-2.09892
1.96327
-2.18093
2.11915
-2.22461
2.2424
-2.24281
2.32667
-2.24675
2.37439
-2.23775
2.37399
-2.23058
2.32152
-2.23222
2.22293
-2.23392
2.07463
-2.23558
1.88203
-2.22806
1.66275
-2.1893
1.4271
-2.11146
1.19147
-1.98613
0.976183
-1.80157
0.784846
-1.56744
0.619033
-1.29717
0.47747
-1.00104
0.340656
-0.705152
0.192816
-0.430225
0.0239087
-0.183277
-1.21443
-1.02383
-1.39488
-0.830443
-1.57332
-0.629095
-1.75094
-0.408527
-1.91545
-0.175148
-2.06914
0.0748914
-2.20796
0.349589
-2.31569
0.636494
-2.39251
0.930924
-2.43571
1.2321
-2.43435
1.51991
-2.39682
1.78376
-2.3311
2.02172
-2.23747
2.21755
-2.13292
2.36448
-2.02969
2.46514
-1.92642
2.50882
-1.8316
2.49097
-1.74384
2.41904
-1.64613
2.29549
-1.5321
2.13291
-1.39066
1.9556
-1.20351
1.77839
-0.971836
1.61743
-0.700509
1.48739
-0.393074
1.38224
-0.0729246
1.29267
0.237163
1.20741
0.523957
1.10055
0.766316
0.955473
-1.93652
-2.04039
-1.82038
-2.13774
-1.6793
-2.22067
-1.51716
-2.29593
-1.32627
-2.36293
-1.09405
-2.40754
-0.828141
-2.43062
-0.5282
-2.42803
-0.191474
-2.38535
0.16249
-2.30635
0.521706
-2.19388
0.880218
-2.04363
1.21576
-1.87031
1.51854
-1.68668
1.79049
-1.49507
2.01962
-1.31072
2.19849
-1.14061
2.32686
-0.975825
2.39366
-0.816333
2.39572
-0.653892
2.34623
-0.468517
2.25727
-0.255802
2.14965
-0.0121843
2.05113
0.268352
1.97392
0.570326
1.92609
0.875277
1.90999
1.16973
1.90629
1.42715
1.89538
1.62944
1.86023
1.77507
-2.37028
-2.35835
-2.36069
-2.32838
-2.34153
-2.27072
-2.31719
-2.16954
-2.27784
-2.0276
-2.22801
-1.83793
-2.1655
-1.59061
-2.07556
-1.29884
-1.95978
-0.969641
-1.81684
-0.607635
-1.63694
-0.238838
-1.42961
0.121779
-1.20379
0.471221
-0.960311
0.795346
-0.716424
1.09267
-0.484273
1.36974
-0.26218
1.61314
-0.058339
1.80612
0.128487
1.94205
0.314452
2.01402
0.50406
2.02866
0.705324
2.01088
0.932462
1.98168
1.17967
1.96465
1.43745
1.98229
1.69857
2.03504
1.93784
2.11669
2.13305
2.21522
2.27433
2.3007
2.34669
2.34944
-2.32272
-2.21368
-2.41526
-2.09697
-2.47531
-1.96741
-2.50373
-1.83457
-2.48935
-1.70056
-2.41611
-1.55355
-2.2893
-1.3966
-2.10662
-1.22751
-1.86449
-1.03318
-1.58435
-0.818424
-1.28102
-0.586648
-0.963225
-0.333521
-0.655627
-0.0732998
-0.363585
0.182017
-0.072896
0.431211
0.218919
0.660166
0.510271
0.862715
0.791627
1.04811
1.03428
1.21591
1.21428
1.37285
1.33221
1.53645
1.39761
1.70793
1.43288
1.88723
1.47202
2.07705
1.53548
2.25964
1.63898
2.41587
1.79046
2.53386
1.97354
2.59119
2.16797
2.57603
2.3525
2.49478
-1.72061
-1.91082
-1.51516
-2.08809
-1.30804
-2.24125
-1.10563
-2.35255
-0.90018
-2.42289
-0.698724
-2.44248
-0.501592
-2.39813
-0.296128
-2.30088
-0.0856835
-2.15597
0.130023
-1.96748
0.360666
-1.76421
0.597343
-1.56374
0.83245
-1.36759
1.06712
-1.18128
1.28632
-0.979535
1.48001
-0.724322
1.65167
-0.423222
1.79418
-0.122698
1.90888
0.137556
2.01106
0.333879
2.10348
0.462886
2.19169
0.549081
2.28734
0.618061
2.38248
0.700146
2.46645
0.825471
2.53244
1.0018
2.55774
1.22861
2.52461
1.4965
2.42946
1.77542
2.26498
2.03848
-0.947039
-0.69241
-1.19957
-0.444
-1.43483
-0.196497
-1.65469
0.0395129
-1.84776
0.260096
-1.99639
0.474981
-2.1036
0.678721
-2.16311
0.871499
-2.16667
1.06529
-2.13302
1.25509
-2.0759
1.43839
-2.00606
1.6216
-1.95573
1.79326
-1.93579
1.94455
-1.91446
2.07751
-1.82482
2.18077
-1.59911
2.25008
-1.28136
2.29558
-0.969709
2.31664
-0.727524
2.31883
-0.558698
2.31798
-0.451885
2.31356
-0.381786
2.30418
-0.309359
2.29227
-0.207856
2.26141
-0.0541248
2.19544
0.166181
2.0872
0.442391
1.92052
0.757877
1.69052
1.092
1.41057
0.242313
-0.0187136
0.500206
-0.288774
0.743728
-0.560084
0.967494
-0.817536
1.17909
-1.06357
1.36999
-1.28719
1.53766
-1.47128
1.69275
-1.62193
1.83037
-1.73761
1.95027
-1.81643
2.06306
-1.88669
2.16201
-1.97252
2.24273
-2.09575
2.31031
-2.29477
2.35375
-2.50557
2.36658
-2.5175
2.355
-2.24546
2.31352
-1.88254
2.24381
-1.59876
2.1606
-1.41749
2.06545
-1.32005
1.96262
-1.27187
1.86299
-1.24444
1.75898
-1.20262
1.64161
-1.11209
1.50742
-0.958844
1.33858
-0.73664
1.12318
-0.44913
0.863873
-0.121639
0.559384
0.221538
1.1552
1.37202
0.919178
1.56639
0.673115
1.74737
0.408979
1.90592
0.133903
2.03778
-0.136088
2.15126
-0.402806
2.23881
-0.654695
2.29863
-0.874669
2.3418
-1.07289
2.36369
-1.25463
2.3636
-1.42789
2.3512
-1.63179
2.31914
-1.9028
2.26301
-2.22138
2.18899
-2.47014
2.08905
-2.58167
1.96097
-2.38307
1.81576
-2.07902
1.65252
-1.90185
1.47583
-1.83136
1.30044
-1.83177
1.12525
-1.86936
0.949257
-1.90656
0.77677
-1.91534
0.594787
-1.86902
0.391781
-1.74858
0.166058
-1.55788
-0.0928848
-1.30635
-0.385258
-1.00865
-0.694596
2.03569
1.8997
2.15466
1.73281
2.25136
1.5346
2.32391
1.31264
2.38131
1.05888
2.41428
0.782913
2.41827
0.504952
2.4018
0.225965
2.35833
-0.0413917
2.28713
-0.280897
2.20002
-0.510856
2.09295
-0.741383
1.96528
-0.968432
1.82655
-1.16274
1.67003
-1.22688
1.49273
-1.44785
1.30328
-1.85961
1.0972
-1.93787
0.875933
-1.85933
0.653208
-1.85377
0.429367
-1.91591
0.207762
-2.02178
-0.000547791
-2.14805
-0.201553
-2.2637
-0.401238
-2.33707
-0.598742
-2.35229
-0.806823
-2.29792
-1.03262
-2.17068
-1.26967
-1.98754
-1.51736
-1.76477
2.40139
2.41301
2.36087
2.40032
2.29097
2.37805
2.17351
2.33987
2.00743
2.28152
1.80356
2.20978
1.55893
2.11457
1.28999
1.99168
1.02391
1.85091
0.764529
1.68779
0.521842
1.5033
0.304677
1.31027
0.0889512
1.10528
-0.105547
0.88786
-0.207687
0.667691
-0.317027
0.439077
-0.612656
0.200705
-1.05454
-0.0367332
-1.23753
-0.275433
-1.35721
-0.512618
-1.49185
-0.734954
-1.66397
-0.944034
-1.86333
-1.14006
-2.06651
-1.31634
-2.25325
-1.48212
-2.39999
-1.64461
-2.48688
-1.80125
-2.51247
-1.9594
-2.47776
-2.11846
-2.38803
-2.26381
2.30211
2.40917
2.18347
2.48126
2.05478
2.50755
1.91781
2.48521
1.78254
2.39747
1.63831
2.24969
1.47769
2.06266
1.30628
1.84298
1.11524
1.61548
0.902786
1.41291
0.681421
1.23648
0.44922
1.07348
0.208576
0.923491
-0.0275138
0.615184
-0.262715
0.261997
-0.498038
0.108486
-0.724128
-0.0610897
-0.946137
-0.252986
-1.16449
-0.45501
-1.36784
-0.661539
-1.55808
-0.878926
-1.7334
-1.11759
-1.88287
-1.37567
-2.01102
-1.6362
-2.12107
-1.87705
-2.20845
-2.08604
-2.28216
-2.24981
-2.34683
-2.35918
-2.39542
-2.42199
-2.42951
-2.44375
1.85274
1.63042
2.05892
1.40365
2.23881
1.1916
2.36326
0.989169
2.42148
0.790619
2.41663
0.599789
2.34163
0.403008
2.21502
0.192728
2.07121
-0.0232597
1.92559
-0.249948
1.80673
-0.485442
1.75097
-0.714758
1.74464
-0.938651
1.70893
-1.15523
1.34145
-1.35317
0.952025
-1.53784
0.883922
-1.71171
0.801078
-1.86638
0.593665
-2.00709
0.368516
-2.1343
0.140325
-2.23717
-0.0997371
-2.31854
-0.35962
-2.37841
-0.634043
-2.40823
-0.91685
-2.41433
-1.19271
-2.40083
-1.44485
-2.36271
-1.66934
-2.30667
-1.85991
-2.23426
-2.01219
-2.13595
0.826801
1.13069
0.537745
1.41891
0.269168
1.67183
0.0236445
1.87659
-0.190361
2.00695
-0.386919
2.06203
-0.577794
2.05966
-0.761346
2.00757
-0.949406
1.93836
-1.14544
1.89717
-1.33696
1.89941
-1.52471
1.98587
-1.70454
2.20786
-1.86161
2.41925
-1.99843
2.32817
-2.11608
2.11081
-2.2066
1.86023
-2.27782
1.56926
-2.33385
1.33169
-2.36718
1.12926
-2.38316
0.935288
-2.38243
0.730713
-2.35491
0.500725
-2.30436
0.246388
-2.23206
-0.0224052
-2.13076
-0.300773
-2.00708
-0.576556
-1.86479
-0.837151
-1.69809
-1.08308
-1.51255
-1.30991
-0.0903464
-0.413513
0.247599
-0.707418
0.584294
-0.952632
0.882604
-1.15651
1.12347