# vtk DataFile Version 3.1
vtk output
ASCII
DATASET POLYDATA
POINTS 4260 FLOAT
2.83277e-16          -1    -3.14159
-0.104528 -0.994522  -3.14159
 0.104528 -0.994522  -3.14159
-0.207912 -0.978148  -3.14159
 0.207912 -0.978148  -3.14159
-0.309017 -0.951057  -3.14159
 0.309017 -0.951057  -3.14159
-0.406737 -0.913545  -3.14159
 0.406737 -0.913545  -3.14159
     -0.5 -0.866025  -3.14159
      0.5 -0.866025  -3.14159
-0.587785 -0.809017  -3.14159
 0.587785 -0.809017  -3.14159
-0.669131 -0.743145  -3.14159
 0.669131 -0.743145  -3.14159
-0.743145 -0.669131  -3.14159
 0.743145 -0.669131  -3.14159
-0.809017 -0.587785  -3.14159
 0.809017 -0.587785  -3.14159
-0.866025      -0.5  -3.14159
0.866025     -0.5 -3.14159
-0.913545 -0.406737  -3.14159
 0.913545 -0.406737  -3.14159
-0.951057 -0.309017  -3.14159
 0.951057 -0.309017  -3.14159
-0.978148 -0.207912  -3.14159
 0.978148 -0.207912  -3.14159
-0.994522 -0.104528  -3.14159
 0.994522 -0.104528  -3.14159
          -1 -5.66554e-16     -3.14159
       1        0 -3.14159
-0.994522  0.104528  -3.14159
0.994522 0.104528 -3.14159
-0.978148  0.207912  -3.14159
0.978148 0.207912 -3.14159
-0.951057  0.309017  -3.14159
0.951057 0.309017 -3.14159
-0.913545  0.406737  -3.14159
0.913545 0.406737 -3.14159
-0.866025       0.5  -3.14159
0.866025      0.5 -3.14159
-0.809017  0.587785  -3.14159
0.809017 0.587785 -3.14159
-0.743145  0.669131  -3.14159
0.743145 0.669131 -3.14159
-0.669131  0.743145  -3.14159
0.669131 0.743145 -3.14159
-0.587785  0.809017  -3.14159
0.587785 0.809017 -3.14159
    -0.5 0.866025 -3.14159
     0.5 0.866025 -3.14159
-0.406737  0.913545  -3.14159
0.406737 0.913545 -3.14159
-0.309017  0.951057  -3.14159
0.309017 0.951057 -3.14159
-0.207912  0.978148  -3.14159
0.207912 0.978148 -3.14159
-0.104528  0.994522  -3.14159
0.104528 0.994522 -3.14159
-1.83697e-16            1     -3.14159
-0.052336  -0.99863   -3.0509
0.052336 -0.99863  -3.0509
-0.156434 -0.987688   -3.0509
 0.156434 -0.987688   -3.0509
-0.258819 -0.965926   -3.0509
 0.258819 -0.965926   -3.0509
-0.358368  -0.93358   -3.0509
0.358368 -0.93358  -3.0509
 -0.45399 -0.891007   -3.0509
  0.45399 -0.891007   -3.0509
-0.544639 -0.838671   -3.0509
 0.544639 -0.838671   -3.0509
 -0.62932 -0.777146   -3.0509
  0.62932 -0.777146   -3.0509
-0.707107 -0.707107   -3.0509
 0.707107 -0.707107   -3.0509
-0.777146  -0.62932   -3.0509
0.777146 -0.62932  -3.0509
-0.838671 -0.544639   -3.0509
 0.838671 -0.544639   -3.0509
-0.891007  -0.45399   -3.0509
0.891007 -0.45399  -3.0509
 -0.93358 -0.358368   -3.0509
  0.93358 -0.358368   -3.0509
-0.965926 -0.258819   -3.0509
 0.965926 -0.258819   -3.0509
-0.987688 -0.156434   -3.0509
 0.987688 -0.156434   -3.0509
 -0.99863 -0.052336   -3.0509
  0.99863 -0.052336   -3.0509
-0.99863 0.052336  -3.0509
 0.99863 0.052336  -3.0509
-0.987688  0.156434   -3.0509
0.987688 0.156434  -3.0509
-0.965926  0.258819   -3.0509
0.965926 0.258819  -3.0509
-0.93358 0.358368  -3.0509
 0.93358 0.358368  -3.0509
-0.891007   0.45399   -3.0509
0.891007  0.45399  -3.0509
-0.838671  0.544639   -3.0509
0.838671 0.544639  -3.0509
-0.777146   0.62932   -3.0509
0.777146  0.62932  -3.0509
-0.707107  0.707107   -3.0509
0.707107 0.707107  -3.0509
-0.62932 0.777146  -3.0509
 0.62932 0.777146  -3.0509
-0.544639  0.838671   -3.0509
0.544639 0.838671  -3.0509
-0.45399 0.891007  -3.0509
 0.45399 0.891007  -3.0509
-0.358368   0.93358   -3.0509
0.358368  0.93358  -3.0509
-0.258819  0.965926   -3.0509
0.258819 0.965926  -3.0509
-0.156434  0.987688   -3.0509
0.156434 0.987688  -3.0509
-0.052336   0.99863   -3.0509
0.052336  0.99863  -3.0509
6.12323e-17          -1    -2.96021
-0.104528 -0.994522  -2.96021
 0.104528 -0.994522  -2.96021
-0.207912 -0.978148  -2.96021
 0.207912 -0.978148  -2.96021
-0.309017 -0.951057  -2.96021
 0.309017 -0.951057  -2.96021
-0.406737 -0.913545  -2.96021
 0.406737 -0.913545  -2.96021
     -0.5 -0.866025  -2.96021
      0.5 -0.866025  -2.96021
-0.587785 -0.809017  -2.96021
 0.587785 -0.809017  -2.96021
-0.669131 -0.743145  -2.96021
 0.669131 -0.743145  -2.96021
-0.743145 -0.669131  -2.96021
 0.743145 -0.669131  -2.96021
-0.809017 -0.587785  -2.96021
 0.809017 -0.587785  -2.96021
-0.866025      -0.5  -2.96021
0.866025     -0.5 -2.96021
-0.913545 -0.406737  -2.96021
 0.913545 -0.406737  -2.96021
-0.951057 -0.309017  -2.96021
 0.951057 -0.309017  -2.96021
-0.978148 -0.207912  -2.96021
 0.978148 -0.207912  -2.96021
-0.994522 -0.104528  -2.96021
 0.994522 -0.104528  -2.96021
          -1 -5.66554e-16     -2.96021
          1 2.77556e-17    -2.96021
-0.994522  0.104528  -2.96021
0.994522 0.104528 -2.96021
-0.978148  0.207912  -2.96021
0.978148 0.207912 -2.96021
-0.951057  0.309017  -2.96021
0.951057 0.309017 -2.96021
-0.913545  0.406737  -2.96021
0.913545 0.406737 -2.96021
-0.866025       0.5  -2.96021
0.866025      0.5 -2.96021
-0.809017  0.587785  -2.96021
0.809017 0.587785 -2.96021
-0.743145  0.669131  -2.96021
0.743145 0.669131 -2.96021
-0.669131  0.743145  -2.96021
0.669131 0.743145 -2.96021
-0.587785  0.809017  -2.96021
0.587785 0.809017 -2.96021
    -0.5 0.866025 -2.96021
     0.5 0.866025 -2.96021
-0.406737  0.913545  -2.96021
0.406737 0.913545 -2.96021
-0.309017  0.951057  -2.96021
0.309017 0.951057 -2.96021
-0.207912  0.978148  -2.96021
0.207912 0.978148 -2.96021
-0.104528  0.994522  -2.96021
0.104528 0.994522 -2.96021
-1.83697e-16            1     -2.96021
-0.052336  -0.99863  -2.86952
0.052336 -0.99863 -2.86952
-0.156434 -0.987688  -2.86952
 0.156434 -0.987688  -2.86952
-0.258819 -0.965926  -2.86952
 0.258819 -0.965926  -2.86952
-0.358368  -0.93358  -2.86952
0.358368 -0.93358 -2.86952
 -0.45399 -0.891007  -2.86952
  0.45399 -0.891007  -2.86952
-0.544639 -0.838671  -2.86952
 0.544639 -0.838671  -2.86952
 -0.62932 -0.777146  -2.86952
  0.62932 -0.777146  -2.86952
-0.707107 -0.707107  -2.86952
 0.707107 -0.707107  -2.86952
-0.777146  -0.62932  -2.86952
0.777146 -0.62932 -2.86952
-0.838671 -0.544639  -2.86952
 0.838671 -0.544639  -2.86952
-0.891007  -0.45399  -2.86952
0.891007 -0.45399 -2.86952
 -0.93358 -0.358368  -2.86952
  0.93358 -0.358368  -2.86952
-0.965926 -0.258819  -2.86952
 0.965926 -0.258819  -2.86952
-0.987688 -0.156434  -2.86952
 0.987688 -0.156434  -2.86952
 -0.99863 -0.052336  -2.86952
  0.99863 -0.052336  -2.86952
-0.99863 0.052336 -2.86952
 0.99863 0.052336 -2.86952
-0.987688  0.156434  -2.86952
0.987688 0.156434 -2.86952
-0.965926  0.258819  -2.86952
0.965926 0.258819 -2.86952
-0.93358 0.358368 -2.86952
 0.93358 0.358368 -2.86952
-0.891007   0.45399  -2.86952
0.891007  0.45399 -2.86952
-0.838671  0.544639  -2.86952
0.838671 0.544639 -2.86952
-0.777146   0.62932  -2.86952
0.777146  0.62932 -2.86952
-0.707107  0.707107  -2.86952
0.707107 0.707107 -2.86952
-0.62932 0.777146 -2.86952
 0.62932 0.777146 -2.86952
-0.544639  0.838671  -2.86952
0.544639 0.838671 -2.86952
-0.45399 0.891007 -2.86952
 0.45399 0.891007 -2.86952
-0.358368   0.93358  -2.86952
0.358368  0.93358 -2.86952
-0.258819  0.965926  -2.86952
0.258819 0.965926 -2.86952
-0.156434  0.987688  -2.86952
0.156434 0.987688 -2.86952
-0.052336   0.99863  -2.86952
0.052336  0.99863 -2.86952
6.12323e-17          -1    -2.77883
-0.104528 -0.994522  -2.77883
 0.104528 -0.994522  -2.77883
-0.207912 -0.978148  -2.77883
 0.207912 -0.978148  -2.77883
-0.309017 -0.951057  -2.77883
 0.309017 -0.951057  -2.77883
-0.406737 -0.913545  -2.77883
 0.406737 -0.913545  -2.77883
     -0.5 -0.866025  -2.77883
      0.5 -0.866025  -2.77883
-0.587785 -0.809017  -2.77883
 0.587785 -0.809017  -2.77883
-0.669131 -0.743145  -2.77883
 0.669131 -0.743145  -2.77883
-0.743145 -0.669131  -2.77883
 0.743145 -0.669131  -2.77883
-0.809017 -0.587785  -2.77883
 0.809017 -0.587785  -2.77883
-0.866025      -0.5  -2.77883
0.866025     -0.5 -2.77883
-0.913545 -0.406737  -2.77883
 0.913545 -0.406737  -2.77883
-0.951057 -0.309017  -2.77883
 0.951057 -0.309017  -2.77883
-0.978148 -0.207912  -2.77883
 0.978148 -0.207912  -2.77883
-0.994522 -0.104528  -2.77883
 0.994522 -0.104528  -2.77883
          -1 -1.22465e-16     -2.77883
          1 5.55112e-17    -2.77883
-0.994522  0.104528  -2.77883
0.994522 0.104528 -2.77883
-0.978148  0.207912  -2.77883
0.978148 0.207912 -2.77883
-0.951057  0.309017  -2.77883
0.951057 0.309017 -2.77883
-0.913545  0.406737  -2.77883
0.913545 0.406737 -2.77883
-0.866025       0.5  -2.77883
0.866025      0.5 -2.77883
-0.809017  0.587785  -2.77883
0.809017 0.587785 -2.77883
-0.743145  0.669131  -2.77883
0.743145 0.669131 -2.77883
-0.669131  0.743145  -2.77883
0.669131 0.743145 -2.77883
-0.587785  0.809017  -2.77883
0.587785 0.809017 -2.77883
    -0.5 0.866025 -2.77883
     0.5 0.866025 -2.77883
-0.406737  0.913545  -2.77883
0.406737 0.913545 -2.77883
-0.309017  0.951057  -2.77883
0.309017 0.951057 -2.77883
-0.207912  0.978148  -2.77883
0.207912 0.978148 -2.77883
-0.104528  0.994522  -2.77883
0.104528 0.994522 -2.77883
-1.83697e-16            1     -2.77883
-0.052336  -0.99863  -2.68814
0.052336 -0.99863 -2.68814
-0.156434 -0.987688  -2.68814
 0.156434 -0.987688  -2.68814
-0.258819 -0.965926  -2.68814
 0.258819 -0.965926  -2.68814
-0.358368  -0.93358  -2.68814
0.358368 -0.93358 -2.68814
 -0.45399 -0.891007  -2.68814
  0.45399 -0.891007  -2.68814
-0.544639 -0.838671  -2.68814
 0.544639 -0.838671  -2.68814
 -0.62932 -0.777146  -2.68814
  0.62932 -0.777146  -2.68814
-0.707107 -0.707107  -2.68814
 0.707107 -0.707107  -2.68814
-0.777146  -0.62932  -2.68814
0.777146 -0.62932 -2.68814
-0.838671 -0.544639  -2.68814
 0.838671 -0.544639  -2.68814
-0.891007  -0.45399  -2.68814
0.891007 -0.45399 -2.68814
 -0.93358 -0.358368  -2.68814
  0.93358 -0.358368  -2.68814
-0.965926 -0.258819  -2.68814
 0.965926 -0.258819  -2.68814
-0.987688 -0.156434  -2.68814
 0.987688 -0.156434  -2.68814
 -0.99863 -0.052336  -2.68814
  0.99863 -0.052336  -2.68814
-0.99863 0.052336 -2.68814
 0.99863 0.052336 -2.68814
-0.987688  0.156434  -2.68814
0.987688 0.156434 -2.68814
-0.965926  0.258819  -2.68814
0.965926 0.258819 -2.68814
-0.93358 0.358368 -2.68814
 0.93358 0.358368 -2.68814
[...]
POINT_DATA 4260
SCALARS Field double
LOOKUP_TABLE default
2.24297
2.13565
2.30899
2.01168
2.36049
1.89311
2.3797
1.75228
2.35007
1.60798
2.30781
1.47325
2.2428
1.31096
2.14183
1.13264
2.03919
0.948296
1.91829
0.72294
1.75707
0.474681
1.58208
0.222817
1.37328
-0.0576352
1.11104
-0.34015
0.830476
-0.60019
0.524383
-0.861193
0.186559
-1.09889
-0.137352
-1.29429
-0.449699
-1.47851
-0.758977
-1.63603
-1.02798
-1.75657
-1.27081
-1.87828
-1.50775
-1.98989
-1.71
-2.08173
-1.89444
-2.18829
-2.07849
-2.29094
-2.22655
-2.37043
-2.34745
-2.45146
-2.45258
-2.50773
-2.5048
-2.51665
1.22539
1.40195
1.06438
1.56969
0.893804
1.70276
0.734105
1.8285
0.597716
1.931
0.444317
1.99559
0.280129
2.05962
0.108742
2.11215
-0.11057
2.13635
-0.362964
2.16098
-0.628887
2.16282
-0.929272
2.11313
-1.23039
2.03364
-1.49903
1.90203
-1.75047
1.69877
-1.95446
1.46133
-2.08958
1.18592
-2.18841
0.869213
-2.2404
0.558663
-2.24263
0.252235
-2.24177
-0.0599357
-2.23463
-0.342494
-2.21811
-0.610908
-2.23109
-0.885802
-2.25666
-1.13687
-2.27488
-1.37771
-2.30765
-1.62159
-2.32442
-1.82849
-2.29772
-2.00355
-2.24945
-2.15625
0.0207773
-0.186087
0.22782
-0.365504
0.455431
-0.498601
0.677857
-0.621843
0.871079
-0.729377
1.06685
-0.823067
1.2541
-0.95329
1.42106
-1.11686
1.60476
-1.30529
1.79009
-1.54723
1.95253
-1.81129
2.11185
-2.06074
2.23671
-2.30239
2.29275
-2.49442
2.30025
-2.60344
2.23959
-2.65236
2.09637
-2.62493
1.91432
-2.51785
1.69482
-2.38257
1.43664
-2.2249
1.18616
-2.05325
0.93746
-1.91852
0.67504
-1.81424
0.429101
-1.72769
0.181151
-1.68396
-0.0895985
-1.65121
-0.349774
-1.5971
-0.6076
-1.53623
-0.870395
-1.43722
-1.09316
-1.27861
-1.40702
-1.20319
-1.55292
-0.969594
-1.66636
-0.738726
-1.73194
-0.48981
-1.74683
-0.243397
-1.76347
-0.015867
-1.78756
0.232109
-1.82497
0.493974
-1.92101
0.75724
-2.05932
1.05333
-2.2134
1.35787
-2.39314
1.63574
-2.55217
1.89825
-2.64626
2.11006
-2.68376
2.23782
-2.63337
2.30779
-2.47937
2.30913
-2.26603
2.23574
-1.99839
2.13694
-1.69066
2.01518
-1.40486
1.865
-1.14869
1.72484
-0.923966
1.57944
-0.767984
1.40494
-0.656639
1.2267
-0.559681
1.02616
-0.488254
0.78661
-0.403117
0.548474
-0.272718
0.311108
-0.120021
0.0727051
-2.27378
-2.39426
-2.12187
-2.45397
-1.9226
-2.43572
-1.70706
-2.38117
-1.5039
-2.29202
-1.28303
-2.17885
-1.05361
-2.09976
-0.822601
-2.05659
-0.545831
-2.04259
-0.231277
-2.08461
0.101061
-2.14664
0.471944
-2.18642
0.846511
-2.20582
1.18231
-2.1603
1.48936
-2.01737
1.73739
-1.80465
1.90245
-1.51392
2.02204
-1.15222
2.09478
-0.781781
2.11881
-0.417525
2.14144
-0.0739748
2.15718
0.196126
2.14851
0.401915
2.14133
0.562127
2.11067
0.659698
2.02789
0.734496
1.91969
0.824608
1.77389
0.917575
1.58272
1.04282
1.39513
1.21575
-2.65504
-2.59578
-2.64019
-2.49345
-2.57578
-2.38472
-2.4474
-2.25245
-2.25521
-2.11896
-2.05546
-1.99972
-1.85744
-1.85069
-1.66996
-1.67059
-1.54006
-1.46266
-1.452
-1.18597
-1.37962
-0.857308
-1.33351
-0.508177
-1.26894
-0.127378
-1.14497
0.245883
-0.97471
0.571314
-0.732682
0.867716
-0.409494
1.11747
-0.0551406
1.30888
0.321293
1.48792
0.703796
1.65506
1.03136
1.80247
1.30018
1.96551
1.51428
2.12397
1.64337
2.24641
1.71851
2.34946
1.77519
2.40565
1.8049
2.39036
1.84633
2.33922
1.92689
2.25064
2.01675
2.12551
-2.24995
-2.19752
-2.27564
-2.0869
-2.26108
-1.89975
-2.23985
-1.67686
-2.24251
-1.41877
-2.23869
-1.13473
-2.23435
-0.881255
-2.2304
-0.658748
-2.17337
-0.460359
-2.06009
-0.314857
-1.89958
-0.19068
-1.66115
-0.0527625
-1.37249
0.0878777
-1.07296
0.265979
-0.752517
0.504922
-0.444119
0.770378
-0.176443
1.06751
0.0833844
1.39038
0.329881
1.68201
0.557324
1.93619
0.809916
2.14899
1.0788
2.27858
1.34142
2.34387
1.61736
2.37054
1.8737
2.34503
2.07234
2.30704
2.2308
2.29074
2.32903
2.27703
2.35355
2.2872
2.35117
2.3281
-1.21207
-1.30709
-1.06506
-1.38197
-0.889232
-1.47444
-0.667505
-1.56812
-0.395856
-1.68556
-0.124659
-1.84138
0.143777
-1.98806
0.406966
-2.11798
0.621913
-2.22562
0.804556
-2.25873
0.976138
-2.22192
1.11629
-2.1356
1.25647
-1.97909
1.4229
-1.78502
1.58921
-1.59092
1.77184
-1.37765
1.97711
-1.16448
2.15886
-0.966364
2.31835
-0.740351
2.45446
-0.488774
2.52319
-0.222606
2.53721
0.0904819
2.51365
0.426477
2.4305
0.748357
2.32156
1.06606
2.21964
1.34426
2.10936
1.54969
2.02016
1.71006
1.96932
1.81763
1.918
1.8694
0.0865259
0.211096
-0.046115
0.358455
-0.17176
0.548311
-0.322753
0.744543
-0.529585
0.954991
-0.762088
1.18129
-1.02608
1.37854
-1.32108
1.55606
-1.58933
1.72559
-1.82033
1.85665
-2.01347
1.97212
-2.12632
2.09246
-2.17463
2.18898
-2.18754
2.27953
-2.14683
2.37492
-2.08028
2.43566
-2.01487
2.47073
-1.91785
2.48635
-1.796
2.44409
-1.65721
2.35937
-1.45865
2.24892
-1.20991
2.0874
-0.934499
1.90371
-0.613827
1.72597
-0.282747
1.53624
0.0165788
1.36489
0.296073
1.23405
0.528663
1.11263
0.692714
1.01238
0.827624
0.934115
1.43841
1.3416
1.5471
1.22927
1.64229
1.0678
1.74324
0.876103
1.86126
0.631658
1.95816
0.317407
2.04684
-0.0220857
2.13956
-0.381141
2.20417
-0.753946
2.26061
-1.0841
2.32558
-1.36855
2.3663
-1.61794
2.39663
-1.80041
2.42386
-1.93814
2.406
-2.06082
2.35124
-2.14391
2.26715
-2.20403
2.11869
-2.25608
1.92616
-2.25753
1.71158
-2.21077
1.45389
-2.12621
1.18429
-1.96916
0.931001
-1.7601
0.674357
-1.53295
0.442627
-1.27547
0.257009
-1.02281
0.0878189
-0.811527
-0.049124
-0.619885
-0.14708
-0.463791
-0.250348
-0.355517
2.3178
2.34342
2.25238
2.35313
2.17043
2.36346
2.04587
2.34133
1.85022
2.30456
1.6114
2.27003
1.31765
2.21038
0.96154
2.15083
0.594085
2.11313
0.22204
2.06842
-0.153916
2.03229
-0.486614
2.01053
-0.783801
1.95625
-1.0657
1.87039
-1.30517
1.75252
-1.52301
1.56094
-1.7425
1.31256
-1.92913
1.03012
-2.08933
0.696975
-2.23128
0.351045
-2.31059
0.027512
-2.33287
-0.287977
-2.31577
-0.56458
-2.23268
-0.781075
-2.10998
-0.968672
-1.98336
-1.11302
-1.83732
-1.20731
-1.69963
-1.29377
-1.59761
-1.36551
-1.50106
-1.42022
2.55355
2.59183
2.50415
2.60345
2.40891
2.56525
2.2838
2.50241
2.14433
2.39246
1.96396
2.21188
1.77246
1.99448
1.59997
1.73336
1.42898
1.42259
1.28725
1.11088
1.1904
0.798585
1.09634
0.476662
1.0042
0.18252
0.905254
-0.0990061
0.744984
-0.391741
0.526379
-0.666784
0.260783
-0.938833
-0.074543
-1.22343
-0.441224
-1.47874
-0.797857
-1.70654
-1.14927
-1.91461
-1.45485
-2.06161
-1.68597
-2.15784
-1.87049
-2.22535
-1.99464
-2.23936
-2.05474
-2.22446
-2.09669
-2.21139
-2.11607
-2.17801
-2.11075
-2.14575
-2.12217
-2.13764
2.12542
2.00991
2.20269
1.86567
2.27965
1.69889
2.34102
1.4733
2.36219
1.21198
2.36731
0.944057
2.33393
0.65847
2.23903
0.396654
2.11719
0.192179
1.96081
0.020865
1.76025
-0.104843
1.55817
-0.188797
1.34716
-0.290571
1.10988
-0.420809
0.877824
-0.586745
0.633479
-0.82971
0.354011
-1.12506
0.0726144
-1.43708
-0.219633
-1.76771
-0.533572
-2.06671
-0.824587
-2.2927
-1.09401
-2.46181
-1.35126
-2.55285
-1.55697
-2.56029
-1.72215
-2.53342
-1.86759
-2.47431
-1.96524
-2.3876
-2.03538
-2.31946
-2.10497
-2.25885
-2.1501
-2.19287
0.992772
1.1246
0.861268
1.25833
0.679841
1.38515
0.454419
1.53869
0.197956
1.69676
-0.110778
1.82759
-0.430604
1.95053
-0.71745
2.04083
-0.976194
2.07442
-1.1709
2.08543
-1.28407
2.0646
-1.36193
1.99806
-1.41328
1.92305
-1.45561
1.82634
-1.54967
1.68534
-1.69381
1.5289
-1.87267
1.33982
-2.10079
1.09726
-2.33016
0.8377
-2.51191
0.555528
-2.6485
0.241806
-2.70377
-0.0579656
-2.66051
-0.344584
-2.56288
-0.626749
-2.41512
-0.863406
-2.22956
-1.06286
-2.06271
-1.24307
-1.91296
-1.37442
-1.77313
-1.47785
-1.67284
-1.58355
-0.292575
-0.401721
-0.188276
-0.523368
-0.0346558
-0.665997
0.164547
-0.87492
0.388783
-1.12903
0.658389
-1.39476
0.939817
-1.67442
1.19389
-1.91646
1.43782
-2.07901
1.6483
-2.18172
1.8035
-2.21198
1.93934
-2.17697
2.04607
-2.14104
2.10625
-2.11866
2.15247
-2.11816
2.16692
-2.17858
2.12311
-2.27037
2.04838
-2.3525
1.92615
-2.42376
1.737
-2.43532
1.5195
-2.35307
1.27033
-2.20604
0.982505
-1.98963
0.703665
-1.7157
0.435739
-1.44819
0.172923
-1.198
-0.0414406
-0.971121
-0.21502
-0.807267
-0.367898
-0.682546
-0.475919
-0.56796
-1.6014
-1.561
-1.61074
-1.47276
-1.65444
-1.33354
-1.73879
-1.103
-1.85835
-0.803485
-2.0365
-0.473662
-2.22962
-0.105697
-2.38864
0.26175
-2.51294
0.590904
-2.56239
0.905488
-2.51758
1.18994
-2.42479
1.42774
-2.29386
1.65692
-2.14289
1.86604
-2.03171
2.03255
-1.95599
2.18341
-1.89672
2.29622
-1.8655
2.34117
-1.81416
2.34467
-1.69816
2.2912
-1.52949
2.16317
-1.28599
2.00168
-0.966997
1.80661
-0.632795
1.57438
-0.300083
1.35603
0.0124093
1.15624
0.249328
0.97015
0.420664
0.838803
0.547221
0.748455
0.615566
0.669698
-2.42647
-2.3454
-2.4784
-2.25429
-2.43719
-2.17286
-2.30038
-2.1557
-2.08708
-2.18781
-1.78003
-2.23867
-1.41958
-2.31119
-1.05395
-2.35301
-0.674356
-2.32109
-0.310509
-2.23416
0.0122653
-2.07876
0.330321
-1.86086
0.636864
-1.64254
0.917786
-1.4346
1.20878
-1.24072
1.49275
-1.09537
1.73965
-0.966296
1.97041
-0.8134
2.1592
-0.641247
2.2747
-0.41172
2.34407
-0.105324
2.35425
0.232921
2.29068
0.593233
2.19801
0.953884
2.07996
1.24782
1.93639
1.4685
1.82016
1.62067
1.73506
1.6796
1.67163
1.68526
1.662
1.68047
-2.52233
-2.69629
-2.29855
-2.79875
-2.09663
-2.82374
-1.92937
-2.73042
-1.79757
-2.54296
-1.73017
-2.30365
-1.68826
-2.00843
-1.62679
-1.69892
-1.54844
-1.4141
-1.41537
-1.12836
-1.20897
-0.852763
-0.974264
-0.597982
-0.71735
-0.318888
-0.450334
-0.0207334
-0.225751
0.277157
-0.0323709
0.60265
0.153194
0.930828
0.319321
1.225
0.508705
1.50269
0.755146
1.73772
1.03238
1.89999
1.34747
2.01906
1.68853
2.08511
1.98825
2.08703
2.23028
2.07284
2.40367
2.04914
2.46678
2.01713
2.44628
2.02775
2.37901
2.0788
2.26381
2.15099
-2.07189
-1.79346
-2.31732
-1.4998
-2.46826
-1.21097
-2.52542
-0.983717
-2.51123
-0.807115
-2.41072
-0.656494
-2.26494
-0.541882
-2.12066
-0.418391
-1.96472
-0.249584
-1.8199
-0.058532
-1.70305
0.167327
-1.56774
0.425208
-1.41081
0.660017
-1.23826
0.870402
-1.00744
1.06235
-0.731071
1.20858
-0.438453
1.34379
-0.109768
1.50444
0.225488
1.67659
0.52862
1.88513
0.817709
2.13568
1.06871
2.37237
1.25369
2.58077
1.40438
2.74244
1.51348
2.80137
1.57288
2.76765
1.63324
2.66461
1.70257
2.48408
1.78093
2.27705
1.91384
2.08958
-0.83003
-1.12157
-0.498485
-1.36024
-0.191025
-1.54858
0.0844274
-1.65232
0.328106
-1.69912
0.50776
-1.7311
0.655058
-1.73976
0.805279
-1.75862
0.945336
-1.8161
1.10448
-1.87409
1.29671
-1.93106
1.47768
-1.98659
1.64738
-1.98558
1.80392
-1.9254
1.90656
-1.82025
1.97667
-1.63776
2.04328
-1.39948
2.09409
-1.14118
2.16476
-0.845176
2.2776
-0.539728
2.3938
-0.261671
2.51081
0.00860129
2.61351
0.248016
2.63984
0.429275
2.58676
0.58516
2.46226
0.710883
2.24525
0.802198
1.97983
0.913037
1.7131
1.05224
1.44482
1.21692
0.382696
0.64758
0.122397
0.913962
-0.0858298
1.17445
-0.253711
1.38053
-0.409944
1.54535
-0.539948
1.68952
-0.679494
1.79369
-0.865523
1.89045
-1.07161
2.00419
-1.30625
2.10303
-1.5731
2.19636
-1.81412
2.28481
-2.01743
2.32244
-2.18348
2.32031
-2.26489
2.29672
-2.2701
2.23308
-2.22467
2.16668
-2.10285
2.12986
-1.92732
2.09937
-1.73208
2.08879
-1.49617
2.09472
-1.24516
2.05847
-1.01577
1.97123
-0.7904
1.82871
-0.594152
1.59515
-0.454134
1.30251
-0.334425
0.99244
-0.233808
0.667002
-0.149269
0.376633
-0.0222
0.155958
1.68521
1.52455
1.85991
1.37222
2.00318
1.21046
2.1223
1.06424
2.22661
0.903679
2.28524
0.691399
2.32378
0.446506
2.36604
0.149426
2.38523
-0.213827
2.39843
-0.592022
2.41241
-0.974086
2.38237
-1.35461
2.31465
-1.67618
2.21875
-1.93599
2.06689
-2.14889
1.89121
-2.27985
1.72627
-2.34421
1.5586
-2.36929
1.41675
-2.32526
1.31293
-2.22782
1.19937
-2.10603
1.06986
-1.93812
0.91386
-1.75301
0.682644
-1.59305
0.393065
-1.44564
0.0752615
-1.33662
-0.272974
-1.28738
-0.597097
-1.25167
-0.851175
-1.21647
-1.04847
-1.16916
2.3769
2.39092
2.33324
2.39286
2.28958
2.39508
2.2223
2.36394
2.0987
2.31996
1.93725
2.28284
1.7124
2.22488
1.40094
2.16573
1.04357
2.11619
0.643254
2.03392
0.20265
1.92381
-0.218932
1.78919
-0.613301
1.59286
-0.98807
1.35788
-1.30198
1.11409
-1.56688
0.850416
-1.80794
0.605358
-1.99117
0.406306
-2.12461
0.220962
-2.22544
0.053588
-2.25437
-0.104433
-2.22231
-0.309572
-2.16093
-0.559884
-2.05746
-0.841776
-1.95175
-1.17001
-1.89319
-1.49417
-1.86911
-1.76195
-1.89634
-1.97216
-1.97974
-2.0877
-2.0554
-2.09713
2.39108
2.51808
2.26181
2.61896
2.10469
2.66339
1.94466
2.67136
1.80315
2.61605
1.65348
2.46986
1.51738
2.26544
1.40871
1.99675
1.28783
1.65962
1.15985
1.30929
1.02411
0.953551
0.834736
0.587858
0.603355
0.25645
0.349243
-0.0520553
0.0554562
-0.36515
-0.237662
-0.653327
-0.492582
-0.929624
-0.725988
-1.21233
-0.917462
-1.4531
-1.06444
-1.64356
-1.22178
-1.79028
-1.39676
-1.85313
-1.59292
-1.85208
-1.84466
-1.8341
-2.11698
-1.80236
-2.36267
-1.80598
-2.57341
-1.89114
-2.69491
-2.03048
-2.6935
-2.21854
-2.60474
-2.43655
1.86278
1.60283
2.07989
1.33317
2.27249
1.08262
2.4124
0.831069
2.47007
0.606651
2.47358
0.42974
2.41061
0.266679
2.27109
0.126777
2.10496
0.00966786
1.91731
-0.135774
1.70441
-0.308595
1.51207
-0.503416
1.32947
-0.75062
1.12764
-1.01824
0.929442
-1.26856
0.709211
-1.5089
0.433519
-1.70272
0.139186
-1.82965
-0.168556
-1.93171
-0.487136
-2.01353
-0.75032
-2.08798
-0.940967
-2.20886
-1.07038
-2.36466
-1.1159
-2.52752
-1.12106
-2.69763
-1.15221
-2.81496
-1.22125
-2.82653
-1.37058
-2.74135
-1.62434
-2.54248
-1.92628
-2.24413
0.578083
0.88819
0.270114
1.16851
-0.0501334
1.38643
-0.346678
1.56592
-0.589704
1.68992
-0.802503
1.74407
-0.965627
1.77403
-1.07173
1.78266
-1.16927
1.76749
-1.26143
1.7768
-1.35381
1.80285
-1.49273
1.8193
-1.66271
1.84697
-1.8378
1.85167
-2.02836
1.7857
-2.19037
1.6655
-2.28722
1.47187
-2.34146
1.18641
-2.34201
0.869759
-2.29601
0.553737
-2.26516
0.259019
-2.25822
0.0548061
-2.27391
-0.0557562
-2.33688
-0.109816
-2.40106
-0.114854
-2.41103
-0.137396
-2.35713
-0.249002
-2.19318
-0.44842
-1.90221
-0.749883
-1.54193
-1.14261
-0.566664
-0.87129
-0.295143
-1.17279
-0.0375997
-1.43656
0.183564
-1.67707
0.349402
-1.86276
0.500925
-1.97287
0.638417
-2.04416
0.760803
-2.07289
0.920155
-2.06526
1.11512
-2.07684
1.32706
-2.10822
1.58116
-2.15209
1.84313
-2.23445
2.06165
-2.31851
2.24197
-2.36327
2.3435
-2.37638
2.31836
-2.326
2.19525
-2.19986
1.97969
-2.04945
1.68149
-1.88766
1.38767
-1.73167
1.14522
-1.63446
0.971406
-1.57931
0.9118
-1.53086
0.93307
-1.48308
0.963888
-1.37481
0.974508
-1.15895
0.896849
-0.857592
0.680912
-0.471924
0.362888
-0.0342236
-1.81187
-1.59874
-2.01104
-1.39904
-2.21215
-1.23692
-2.37885
-1.0773
-2.47996
-0.924757
-2.53811
-0.78155
-2.53473
-0.593809
-2.46444
-0.356165
-2.37849
-0.0760266
-2.28251
0.282453
-2.18299
0.693185
-2.12517
1.10958
-2.09094
1.53563
-2.05095
1.92453
-2.01315
2.21961
-1.9337
2.42929
-1.77933
2.52212
-1.57901
2.46177
-1.32996
2.30063
-1.04719
2.07775
-0.797845
1.83069
-0.592554
1.65689
-0.428016
1.5892
-0.324638
1.61241
-0.232621
1.72877
-0.0958302
1.86629
0.0910051
1.93608
0.363961
1.91434
0.726428
1.76112
1.10736
1.46747
-2.32083
-2.40181
-2.26136
-2.47633
-2.19392
-2.51492
-2.12935
-2.53485
-2.07438
-2.50576
-1.97797
-2.40674
-1.83312
-2.27415
-1.63853
-2.10397
-1.34615
-1.90179
-0.966899
-1.72227
-0.534002
-1.56464
-0.0379818
-1.41944
0.473545
-1.31052
0.945058
-1.19976
1.38868
-1.04631
1.7702
-0.860242
2.0342
-0.61445
2.18741
-0.302716
2.21165
0.0172895
2.09597
0.327805
1.9286
0.609368
1.77594
0.809367
1.68175
0.946415
1.72087
1.0578
1.88076
1.14945
2.09963
1.27863
2.34271
1.48496
2.52497
1.73667
2.57354
2.02324
2.50005
2.3076
-2.23927
-2.31036
-2.15522
-2.38439
-2.08415
-2.47324
-1.99718
-2.5314
-1.8669
-2.55602
-1.71685
-2.54473
-1.52716
-2.44381
-1.28942
-2.25169
-1.05136
-1.98266
-0.815338
-1.61168
-0.584714
-1.17615
-0.402372
-0.733005
-0.248778
-0.277903
-0.0940238
0.154538
0.0532226
0.539712
0.234664
0.915276
0.480446
1.23971
0.757832
1.42405
1.0659
1.47559
1.3871
1.41758
1.65335
1.28586
1.85447
1.19833
1.99514
1.21406
2.05587
1.34595
2.08544
1.61656
2.1365
1.96195
2.20847
2.29038
2.33017
2.56312
2.49926
2.71909
2.64327
2.72758
-1.54772
-1.35559
-1.7649
-1.1729
-1.96628
-0.980403
-2.15427
-0.802471
-2.33048
-0.611924
-2.44367
-0.386566
-2.49053
-0.158551
-2.47444
0.0818693
-2.3543
0.335338
-2.14712
0.552372
-1.89207
0.73708
-1.58709
0.900534
-1.2837
1.01864
-1.03673
1.12782
-0.796132
1.26659
-0.509423
1.42244
-0.156047
1.62038
0.193216
1.86572
0.421467
2.10121
0.460611
2.31061
0.397252
2.47686
0.305512
2.54966
0.249847
2.54851
0.331133
2.50968
0.560335
2.43577
0.896607
2.3787
1.31375
2.37257
1.72487
2.38203
2.04658
2.39672
2.27242
2.38582
-0.248819
-0.517624
0.0174779
-0.794684
0.244044
-1.08453
0.450106
-1.34012
0.658008
-1.56296
0.843892
-1.75794
1.0316
-1.88073
1.23695
-1.93782
1.42049
-1.94577
1.58713
-1.88125
1.73869
-1.77957
1.83436
-1.70025
1.89285
-1.65958
1.94145
-1.72747
1.96811
-1.8562
2.01159
-1.70573
2.10084
-1.21648
2.20407
-0.787651
2.32332
-0.589652
2.44569
-0.583276
2.50828
-0.701695
2.50509
-0.809327
2.44314
-0.833943
2.30261
-0.737302
2.12897
-0.476248
1.96995
-0.096548
1.82003
0.322379
1.7048
0.742762
1.623
1.09627
1.50877
1.339
0.921058
1.17672
0.629136
1.40197
0.347358
1.60649
0.0721891
1.75876
-0.204995
1.8834
-0.445818
2.00582
-0.661934
2.10118
-0.867045
2.18855
-1.02447
2.27791
-1.14774
2.32652
-1.26189
2.34136
-1.35801
2.33274
-1.48465
2.27286
-1.75596
2.19309
-2.17232
2.12781
-2.43475
2.06266
-2.35221
2.02392
-1.82475
2.02164
-1.40221
2.00562
-1.33314
1.96744
-1.43671
1.897
-1.61009
1.74845
-1.77239
1.54207
-1.81711
1.31164
-1.71764
1.05496
-1.49293
0.818386
-1.15139
0.632582
-0.766003
0.462845
-0.41363
0.304153
-0.104098
0.136218
2.04959
1.85266
2.23469
1.64298
2.36221
1.41506
2.44307
1.20645
2.49553
0.998659
2.49676
0.767968
2.47657
0.541656
2.46044
0.303843
2.41911
0.04343
2.36543
-0.198907
2.30538
-0.435432
2.19762
-0.687866
2.05621
-0.964104
1.90196
-1.26127
1.71657
-1.36271
1.53495
-1.5438
1.38642
-1.80459
1.24388
-1.62985
1.11744
-1.52366
1.00419
-1.64676
0.850633
-1.88767
0.657381
-2.13741
0.434187
-2.33468
0.159742
-2.43689
-0.125475
-2.39132
-0.379765
-2.22434
-0.613289
-1.99344
-0.801741
-1.71992
-0.942444
-1.46245
-1.09239
-1.26357
2.44848
2.51757
2.34811
2.55494
2.26276
2.56267
2.17975
2.50324
2.07375
2.39966
1.96035
2.28161
1.80441
2.13263
1.57776
1.98176
1.31538
1.84799
1.01823
1.6937
0.693248
1.52579
0.385273
1.34991
0.080602
1.13038
-0.182167
0.890005
-0.256809
0.656914
-0.314853
0.414683
-0.609029
0.192536
-0.947737
0.00823998
-1.0287
-0.177764
-1.24049
-0.363101
-1.50768
-0.549074
-1.81894
-0.776944
-2.13519
-1.02692
-2.37581
-1.2698
-2.51707
-1.51458
-2.56563
-1.72146
-2.51029
-1.86305
-2.40059
-1.97234
-2.29289
-2.04814
-2.18529
-2.10119
2.20143
2.25329
2.15456
2.31177
2.05968
2.36684
1.92012
2.44168
1.75055
2.49471
1.52957
2.47724
1.29307
2.39471
1.07585
2.21932
0.857637
1.94759
0.657037
1.64685
0.481121
1.34494
0.284178
1.04334
0.0716664
0.830365
-0.145675
0.613618
-0.395032
0.282457
-0.646704
0.162638
-0.871084
0.0421696
-1.08958
-0.0999347
-1.28253
-0.32639
-1.44159
-0.611921
-1.61036
-0.935277
-1.78231
-1.26316
-1.94675
-1.5769
-2.12906
-1.85493
-2.29634
-2.04802
-2.41488
-2.169
-2.50042
-2.25175
-2.52998
-2.29289
-2.49683
-2.33037
-2.45013
-2.39398
1.37592
1.22533
1.52772
1.06858
1.72781
0.899653
1.95483
0.674875
2.16643
0.415507
2.35417
0.155067
2.45675
-0.11552
2.42788
-0.359039
2.29775
-0.550022
2.07859
-0.724071
1.8111
-0.877796
1.60063
-1.01355
1.49969
-1.17782
1.58322
-1.35868
1.41764
-1.53581
1.07521
-1.72855
1.0389
-1.9051
0.936497
-2.04016
0.704916
-2.16317
0.474223
-2.26199
0.233668
-2.331
-0.0311388
-2.40948
-0.327332
-2.48116
-0.608866
-2.52431
-0.86876
-2.5571
-1.11075
-2.54771
-1.30693
-2.47249
-1.4823
-2.36291
-1.66807
-2.21205
-1.84373
-2.02293
-0.000780992
0.203489
-0.162908
0.457856
-0.345415
0.752768
-0.553615
1.10259
-0.776917
1.44747
-1.03593
1.71626
-1.28982
1.892
-1.49651
1.9299
-1.66993
1.825
-1.78864
1.66214
-1.84737
1.49858
-1.89857
1.42603
-1.94712
1.63386
-1.9935
2.11532
-2.07446
2.31838
-2.16597
2.18622
-2.23874
1.86393
-2.3095
1.53132
-2.35067
1.37072
-2.34502
1.26079
-2.32922
1.1272
-2.2942
0.974922
-2.23176
0.786733
-2.17437
0.557361
-2.09899
0.328426
-1.98122
0.0952639
-1.84289
-0.156137
-1.66226
-0.398783
-1.42846
-0.649512
-1.18322
-0.923832
-1.22537
-1.37771
-1.03007
-1.50582
-0.736811
-1.62575
-0.366047
-1.78797
0.0332683
-1.97322