# vtk DataFile Version 3.1
vtk output
ASCII
DATASET POLYDATA
POINTS 4260 FLOAT
2.83277e-16          -1    -3.14159
-0.104528 -0.994522  -3.14159
 0.104528 -0.994522  -3.14159
-0.207912 -0.978148  -3.14159
 0.207912 -0.978148  -3.14159
-0.309017 -0.951057  -3.14159
 0.309017 -0.951057  -3.14159
-0.406737 -0.913545  -3.14159
 0.406737 -0.913545  -3.14159
     -0.5 -0.866025  -3.14159
      0.5 -0.866025  -3.14159
-0.587785 -0.809017  -3.14159
 0.587785 -0.809017  -3.14159
-0.669131 -0.743145  -3.14159
 0.669131 -0.743145  -3.14159
-0.743145 -0.669131  -3.14159
 0.743145 -0.669131  -3.14159
-0.809017 -0.587785  -3.14159
 0.809017 -0.587785  -3.14159
-0.866025      -0.5  -3.14159
0.866025     -0.5 -3.14159
-0.913545 -0.406737  -3.14159
 0.913545 -0.406737  -3.14159
-0.951057 -0.309017  -3.14159
 0.951057 -0.309017  -3.14159
-0.978148 -0.207912  -3.14159
 0.978148 -0.207912  -3.14159
-0.994522 -0.104528  -3.14159
 0.994522 -0.104528  -3.14159
          -1 -5.66554e-16     -3.14159
       1        0 -3.14159
-0.994522  0.104528  -3.14159
0.994522 0.104528 -3.14159
-0.978148  0.207912  -3.14159
0.978148 0.207912 -3.14159
-0.951057  0.309017  -3.14159
0.951057 0.309017 -3.14159
-0.913545  0.406737  -3.14159
0.913545 0.406737 -3.14159
-0.866025       0.5  -3.14159
0.866025      0.5 -3.14159
-0.809017  0.587785  -3.14159
0.809017 0.587785 -3.14159
-0.743145  0.669131  -3.14159
0.743145 0.669131 -3.14159
-0.669131  0.743145  -3.14159
0.669131 0.743145 -3.14159
-0.587785  0.809017  -3.14159
0.587785 0.809017 -3.14159
    -0.5 0.866025 -3.14159
     0.5 0.866025 -3.14159
-0.406737  0.913545  -3.14159
0.406737 0.913545 -3.14159
-0.309017  0.951057  -3.14159
0.309017 0.951057 -3.14159
-0.207912  0.978148  -3.14159
0.207912 0.978148 -3.14159
-0.104528  0.994522  -3.14159
0.104528 0.994522 -3.14159
-1.83697e-16            1     -3.14159
-0.052336  -0.99863   -3.0509
0.052336 -0.99863  -3.0509
-0.156434 -0.987688   -3.0509
 0.156434 -0.987688   -3.0509
-0.258819 -0.965926   -3.0509
 0.258819 -0.965926   -3.0509
-0.358368  -0.93358   -3.0509
0.358368 -0.93358  -3.0509
 -0.45399 -0.891007   -3.0509
  0.45399 -0.891007   -3.0509
-0.544639 -0.838671   -3.0509
 0.544639 -0.838671   -3.0509
 -0.62932 -0.777146   -3.0509
  0.62932 -0.777146   -3.0509
-0.707107 -0.707107   -3.0509
 0.707107 -0.707107   -3.0509
-0.777146  -0.62932   -3.0509
0.777146 -0.62932  -3.0509
-0.838671 -0.544639   -3.0509
 0.838671 -0.544639   -3.0509
-0.891007  -0.45399   -3.0509
 0.891007 -0.453991   -3.0509
 -0.93358 -0.358368   -3.0509
  0.93358 -0.358368   -3.0509
-0.965926 -0.258819   -3.0509
 0.965926 -0.258819   -3.0509
-0.987688 -0.156434   -3.0509
 0.987688 -0.156434   -3.0509
 -0.99863 -0.052336   -3.0509
  0.99863 -0.052336   -3.0509
-0.99863 0.052336  -3.0509
 0.99863 0.052336  -3.0509
-0.987688  0.156434   -3.0509
0.987688 0.156434  -3.0509
-0.965926  0.258819   -3.0509
0.965926 0.258819  -3.0509
-0.93358 0.358368  -3.0509
 0.93358 0.358368  -3.0509
-0.891007   0.45399   -3.0509
0.891007 0.453991  -3.0509
-0.838671  0.544639   -3.0509
0.838671 0.544639  -3.0509
-0.777146   0.62932   -3.0509
0.777146  0.62932  -3.0509
-0.707107  0.707107   -3.0509
0.707107 0.707107  -3.0509
-0.62932 0.777146  -3.0509
 0.62932 0.777146  -3.0509
-0.544639  0.838671   -3.0509
0.544639 0.838671  -3.0509
-0.45399 0.891007  -3.0509
 0.45399 0.891007  -3.0509
-0.358368   0.93358   -3.0509
0.358368  0.93358  -3.0509
-0.258819  0.965926   -3.0509
0.258819 0.965926  -3.0509
-0.156434  0.987688   -3.0509
0.156434 0.987688  -3.0509
-0.052336   0.99863   -3.0509
0.052336  0.99863  -3.0509
6.12323e-17          -1    -2.96021
-0.104528 -0.994522  -2.96021
 0.104528 -0.994522  -2.96021
-0.207912 -0.978148  -2.96021
 0.207912 -0.978148  -2.96021
-0.309017 -0.951057  -2.96021
 0.309017 -0.951057  -2.96021
-0.406737 -0.913545  -2.96021
 0.406737 -0.913545  -2.96021
     -0.5 -0.866025  -2.96021
      0.5 -0.866025  -2.96021
-0.587785 -0.809017  -2.96021
 0.587785 -0.809017  -2.96021
-0.669131 -0.743145  -2.96021
 0.669131 -0.743145  -2.96021
-0.743145 -0.669131  -2.96021
 0.743145 -0.669131  -2.96021
-0.809017 -0.587785  -2.96021
 0.809017 -0.587785  -2.96021
-0.866025      -0.5  -2.96021
0.866025     -0.5 -2.96021
-0.913545 -0.406737  -2.96021
 0.913545 -0.406737  -2.96021
-0.951057 -0.309017  -2.96021
 0.951057 -0.309017  -2.96021
-0.978148 -0.207912  -2.96021
 0.978148 -0.207912  -2.96021
-0.994522 -0.104528  -2.96021
 0.994522 -0.104528  -2.96021
          -1 -5.66554e-16     -2.96021
          1 2.77556e-17    -2.96021
-0.994522  0.104528  -2.96021
0.994522 0.104528 -2.96021
-0.978148  0.207912  -2.96021
0.978148 0.207912 -2.96021
-0.951057  0.309017  -2.96021
0.951057 0.309017 -2.96021
-0.913545  0.406737  -2.96021
0.913545 0.406737 -2.96021
-0.866025       0.5  -2.96021
0.866025      0.5 -2.96021
-0.809017  0.587785  -2.96021
0.809017 0.587785 -2.96021
-0.743145  0.669131  -2.96021
0.743145 0.669131 -2.96021
-0.669131  0.743145  -2.96021
0.669131 0.743145 -2.96021
-0.587785  0.809017  -2.96021
0.587785 0.809017 -2.96021
    -0.5 0.866025 -2.96021
     0.5 0.866025 -2.96021
-0.406737  0.913545  -2.96021
0.406737 0.913545 -2.96021
-0.309017  0.951057  -2.96021
0.309017 0.951057 -2.96021
-0.207912  0.978148  -2.96021
0.207912 0.978148 -2.96021
-0.104528  0.994522  -2.96021
0.104528 0.994522 -2.96021
-1.83697e-16            1     -2.96021
-0.052336  -0.99863  -2.86952
0.052336 -0.99863 -2.86952
-0.156434 -0.987688  -2.86952
 0.156434 -0.987688  -2.86952
-0.258819 -0.965926  -2.86952
 0.258819 -0.965926  -2.86952
-0.358368  -0.93358  -2.86952
0.358368 -0.93358 -2.86952
 -0.45399 -0.891007  -2.86952
 0.453991 -0.891007  -2.86952
-0.544639 -0.838671  -2.86952
 0.544639 -0.838671  -2.86952
 -0.62932 -0.777146  -2.86952
  0.62932 -0.777146  -2.86952
-0.707107 -0.707107  -2.86952
 0.707107 -0.707107  -2.86952
-0.777146  -0.62932  -2.86952
0.777146 -0.62932 -2.86952
-0.838671 -0.544639  -2.86952
 0.838671 -0.544639  -2.86952
-0.891007  -0.45399  -2.86952
 0.891007 -0.453991  -2.86952
 -0.93358 -0.358368  -2.86952
  0.93358 -0.358368  -2.86952
-0.965926 -0.258819  -2.86952
 0.965926 -0.258819  -2.86952
-0.987688 -0.156434  -2.86952
 0.987688 -0.156434  -2.86952
 -0.99863 -0.052336  -2.86952
  0.99863 -0.052336  -2.86952
-0.99863 0.052336 -2.86952
 0.99863 0.052336 -2.86952
-0.987688  0.156434  -2.86952
0.987688 0.156434 -2.86952
-0.965926  0.258819  -2.86952
0.965926 0.258819 -2.86952
-0.93358 0.358368 -2.86952
 0.93358 0.358368 -2.86952
-0.891007   0.45399  -2.86952
0.891007 0.453991 -2.86952
-0.838671  0.544639  -2.86952
0.838671 0.544639 -2.86952
-0.777146   0.62932  -2.86952
0.777146  0.62932 -2.86952
-0.707107  0.707107  -2.86952
0.707107 0.707107 -2.86952
-0.62932 0.777146 -2.86952
 0.62932 0.777146 -2.86952
-0.544639  0.838671  -2.86952
0.544639 0.838671 -2.86952
-0.45399 0.891007 -2.86952
0.453991 0.891007 -2.86952
-0.358368   0.93358  -2.86952
0.358368  0.93358 -2.86952
-0.258819  0.965926  -2.86952
0.258819 0.965926 -2.86952
-0.156434  0.987688  -2.86952
0.156434 0.987688 -2.86952
-0.052336   0.99863  -2.86952
0.052336  0.99863 -2.86952
6.12323e-17          -1    -2.77883
-0.104528 -0.994522  -2.77883
 0.104528 -0.994522  -2.77883
-0.207912 -0.978148  -2.77883
 0.207912 -0.978148  -2.77883
-0.309017 -0.951057  -2.77883
 0.309017 -0.951057  -2.77883
-0.406737 -0.913545  -2.77883
 0.406737 -0.913545  -2.77883
     -0.5 -0.866025  -2.77883
      0.5 -0.866025  -2.77883
-0.587785 -0.809017  -2.77883
 0.587785 -0.809017  -2.77883
-0.669131 -0.743145  -2.77883
 0.669131 -0.743145  -2.77883
-0.743145 -0.669131  -2.77883
 0.743145 -0.669131  -2.77883
-0.809017 -0.587785  -2.77883
 0.809017 -0.587785  -2.77883
-0.866025      -0.5  -2.77883
0.866025     -0.5 -2.77883
-0.913545 -0.406737  -2.77883
 0.913546 -0.406737  -2.77883
-0.951057 -0.309017  -2.77883
 0.951057 -0.309017  -2.77883
-0.978148 -0.207912  -2.77883
 0.978148 -0.207912  -2.77883
-0.994522 -0.104528  -2.77883
 0.994522 -0.104528  -2.77883
          -1 -1.22465e-16     -2.77883
          1 5.55112e-17    -2.77883
-0.994522  0.104528  -2.77883
0.994522 0.104528 -2.77883
-0.978148  0.207912  -2.77883
0.978148 0.207912 -2.77883
-0.951057  0.309017  -2.77883
0.951057 0.309017 -2.77883
-0.913545  0.406737  -2.77883
0.913546 0.406737 -2.77883
-0.866025       0.5  -2.77883
0.866025      0.5 -2.77883
-0.809017  0.587785  -2.77883
0.809017 0.587785 -2.77883
-0.743145  0.669131  -2.77883
0.743145 0.669131 -2.77883
-0.669131  0.743145  -2.77883
0.669131 0.743145 -2.77883
-0.587785  0.809017  -2.77883
0.587785 0.809017 -2.77883
    -0.5 0.866025 -2.77883
     0.5 0.866025 -2.77883
-0.406737  0.913545  -2.77883
0.406737 0.913545 -2.77883
-0.309017  0.951057  -2.77883
0.309017 0.951057 -2.77883
-0.207912  0.978148  -2.77883
0.207912 0.978148 -2.77883
-0.104528  0.994522  -2.77883
0.104528 0.994522 -2.77883
-1.83697e-16            1     -2.77883
-0.052336  -0.99863  -2.68814
0.052336 -0.99863 -2.68814
-0.156434 -0.987688  -2.68814
 0.156434 -0.987688  -2.68814
-0.258819 -0.965926  -2.68814
 0.258819 -0.965926  -2.68814
-0.358368  -0.93358  -2.68814
0.358368 -0.93358 -2.68814
 -0.45399 -0.891007  -2.68814
 0.453991 -0.891007  -2.68814
-0.544639 -0.838671  -2.68814
 0.544639 -0.838671  -2.68814
 -0.62932 -0.777146  -2.68814
  0.62932 -0.777146  -2.68814
-0.707107 -0.707107  -2.68814
 0.707107 -0.707107  -2.68814
-0.777146  -0.62932  -2.68814
0.777146 -0.62932 -2.68814
-0.838671 -0.544639  -2.68814
 0.838671 -0.544639  -2.68814
-0.891007  -0.45399  -2.68814
 0.891007 -0.453991  -2.68814
 -0.93358 -0.358368  -2.68814
 0.933581 -0.358368  -2.68814
-0.965926 -0.258819  -2.68814
 0.965926 -0.258819  -2.68814
-0.987688 -0.156434  -2.68814
 0.987689 -0.156435  -2.68814
 -0.99863 -0.052336  -2.68814
  0.99863 -0.052336  -2.68814
-0.99863 0.052336 -2.68814
 0.99863 0.052336 -2.68814
-0.987688  0.156434  -2.68814
0.987689 0.156435 -2.68814
-0.965926  0.258819  -2.68814
0.965926 0.258819 -2.68814
-0.93358 0.358368 -2.68814
0.933581 0.358368 -2.68814
[...]
POINT_DATA 4260
SCALARS Field double
LOOKUP_TABLE default
2.12224
1.99228
2.23703
1.85487
2.32989
1.71746
2.39565
1.58579
2.43085
1.4625
2.43328
1.34621
2.40142
1.23145
2.33379
1.10946
2.22874
0.96995
2.08447
0.803299
1.89959
0.60288
1.67384
0.366894
1.40882
0.099321
1.10856
-0.190271
0.779552
-0.488061
0.430389
-0.778198
0.0709829
-1.04548
-0.288466
-1.27792
-0.638453
-1.46869
-0.970907
-1.61707
-1.27953
-1.72816
-1.55968
-1.8115
-1.80802
-1.87893
-2.02191
-1.94206
-2.19901
-2.00994
-2.33717
-2.08743
-2.43462
-2.17449
-2.49058
-2.26649
-2.506
-2.35533
-2.48421
-2.43119
1.09871
1.27508
0.922384
1.44781
0.749826
1.61383
0.583987
1.77052
0.426007
1.91534
0.274419
2.04509
0.124912
2.15539
-0.0291444
2.24044
-0.19542
2.29332
-0.380815
2.30677
-0.589537
2.27431
-0.821531
2.19134
-1.07169
2.05603
-1.3301
1.86975
-1.58332
1.63688
-1.81649
1.36422
-2.01585
1.06005
-2.17116
0.733179
-2.27745
0.392209
-2.33586
0.0451318
-2.35332
-0.300659
-2.34114
-0.638104
-2.31286
-0.960136
-2.28163
-1.25949
-2.25788
-1.52883
-2.24747
-1.76131
-2.25083
-1.95139
-2.26308
-2.0959
-2.27515
-2.19491
-2.27553
-2.25227
-0.0894172
-0.265999
0.098771
-0.43144
0.299128
-0.586319
0.512076
-0.731844
0.73725
-0.870387
0.972656
-1.00574
1.21392
-1.14283
1.45396
-1.2869
1.68324
-1.44215
1.89061
-1.61033
2.06466
-1.78959
2.19515
-1.97393
2.27428
-2.15359
2.29745
-2.31628
2.26343
-2.44917
2.17395
-2.54103
2.03294
-2.58438
1.84567
-2.57691
1.61802
-2.52206
1.35619
-2.4285
1.06671
-2.30873
0.756802
-2.17699
0.43468
-2.04686
0.109778
-1.929
-0.20749
-1.82954
-0.506396
-1.74916
-0.776974
-1.68324
-1.0113
-1.62281
-1.20471
-1.55624
-1.3567
-1.47121
-1.41396
-1.27709
-1.53115
-1.11628
-1.63267
-0.927415
-1.72236
-0.707308
-1.80402
-0.454697
-1.88162
-0.171248
-1.95912
0.137823
-2.03997
0.463732
-2.1262
0.794808
-2.21747
1.11777
-2.31035
1.41929
-2.39816
1.68752
-2.47151
1.91318
-2.51958
2.09002
-2.53198
2.21467
-2.50063
2.28604
-2.42144
2.30456
-2.29537
2.2715
-2.12849
2.18875
-1.93124
2.05893
-1.71687
1.88591
-1.49941
1.67529
-1.29156
1.43488
-1.10282
1.17461
-0.938231
0.905958
-0.797873
0.640961
-0.677112
0.39079
-0.567587
0.164353
-0.458697
-0.0329078
-0.339359
-0.199766
-2.23323
-2.27177
-2.16864
-2.29079
-2.0712
-2.29614
-1.93451
-2.29298
-1.75365
-2.28577
-1.52629
-2.27816
-1.25362
-2.27262
-0.940735
-2.26986
-0.59639
-2.26819
-0.232029
-2.26314
0.139616
-2.24762
0.506039
-2.21268
0.856209
-2.1489
1.18128
-2.04821
1.47464
-1.9056
1.73149
-1.72046
1.94811
-1.49708
2.12125
-1.24435
2.24789
-0.974482
2.32539
-0.701182
2.35218
-0.437619
2.32852
-0.19453
2.25725
0.0211463
2.14414
0.206926
1.99763
0.364705
1.82818
0.500029
1.647
0.62092
1.46476
0.736476
1.29029
0.85545
1.12954
0.984974
-2.46327
-2.51638
-2.39062
-2.54258
-2.30499
-2.53415
-2.21202
-2.48389
-2.11634
-2.38607
-2.0215
-2.23755
-1.92966
-2.03843
-1.84109
-1.79232
-1.7537
-1.50587
-1.6628
-1.18779
-1.56137
-0.847593
-1.441
-0.494459
-1.29346
-0.136439
-1.11245
0.219734
-0.895399
0.568306
-0.644496
0.903841
-0.366949
1.22056
-0.074123
1.512
0.220177
1.77114
0.50194
1.99109
0.759192
2.16606
0.98376
2.29238
1.17222
2.3693
1.32591
2.39923
1.45005
2.38753
1.55235
2.34178
1.64135
2.27079
1.72496
2.18354
1.80926
2.08823
1.89784
1.99149
-2.05066
-1.89894
-2.18858
-1.73893
-2.30629
-1.57528
-2.39683
-1.41182
-2.45331
-1.25159
-2.4698
-1.0966
-2.44216
-0.947334
-2.36862
-0.802221
-2.24983
-0.657265
-2.08853
-0.506257
-1.88871
-0.341664
-1.65477
-0.15619
-1.39089
0.0553129
-1.10077
0.294057
-0.787944
0.556181
-0.456395
0.832681
-0.111319
1.11054
0.240382
1.37484
0.590052
1.61147
0.927793
1.80965
1.24343
1.96382
1.52769
2.07432
1.77325
2.14688
1.97548
2.19096
2.13274
2.21755
2.2462
2.23683
2.31945
2.25634
2.3579
2.2799
2.36833
2.30746
2.35828
2.33555
-0.928524
-1.12808
-0.729836
-1.32571
-0.534011
-1.51746
-0.342688
-1.69823
-0.157454
-1.86209
0.0202268
-2.00302
0.18949
-2.11549
0.350803
-2.19509
0.506604
-2.2386
0.66147
-2.24384
0.821529
-2.20926
0.993083
-2.13349
1.1807
-2.01528
1.38528
-1.85368
1.60274
-1.64865
1.82377
-1.40191
2.03497
-1.11753
2.22119
-0.802305
2.3685
-0.46551
2.46716
-0.118209
2.51376
0.227802
2.51191
0.561111
2.47144
0.871639
2.40618
1.15128
2.33091
1.39424
2.25831
1.59715
2.19657
1.75916
2.14816
1.88205
2.10991
1.97036
2.07431
2.03131
0.288414
0.479591
0.083777
0.659237
-0.135309
0.829239
-0.368084
0.990643
-0.611661
1.14337
-0.861156
1.28654
-1.11022
1.41939
-1.35173
1.54227
-1.57841
1.65739
-1.78318
1.76881
-1.95925
1.8815
-2.10007
1.99965
-2.19932
2.12465
-2.25115
2.25349
-2.25062
2.3781
-2.19449
2.48623
-2.08197
2.56359
-1.9152
2.59698
-1.69944
2.57755
-1.44274
2.50327
-1.15526
2.37997
-0.848367
2.22051
-0.533835
2.04223
-0.223136
1.86341
0.0730579
1.69947
0.345325
1.55993
0.586049
1.44684
0.790177
1.35495
0.956107
1.27343
1.08648
1.18851
1.59493
1.45704
1.71213
1.29219
1.81478
1.0955
1.9075
0.864784
1.99251
0.601058
2.06968
0.308528
2.13734
-0.00603727
2.19368
-0.33415
2.23812
-0.666413
2.27203
-0.993097
2.29852
-1.30446
2.32119
-1.5909
2.34222
-1.84311
2.3605
-2.05241
2.37051
-2.21129
2.36251
-2.31402
2.32433
-2.35726
2.2442
-2.34051
2.11418
-2.26609
1.93293
-2.13898
1.70717
-1.96636
1.45111
-1.75715
1.18407
-1.52162
0.926579
-1.27109
0.696176
-1.01759
0.503775
-0.773213
0.351657
-0.549064
0.233464
-0.353759
0.136124
-0.191752
0.0431019
-0.0619063
2.34307
2.36486
2.29331
2.36886
2.20563
2.36348
2.07231
2.35385
1.88921
2.3413
1.65634
2.32396
1.37762
2.29827
1.05997
2.26085
0.712262
2.21002
0.344282
2.14649
-0.0339044
2.07276
-0.412291
1.99158
-0.781029
1.90397
-1.13049
1.80762
-1.45141
1.69636
-1.73528
1.56118
-1.97474
1.39258
-2.16407
1.18374
-2.29948
0.933506
-2.37927
0.648244
-2.40382
0.341784
-2.37566
0.0333621
-2.29956
-0.256079
-2.18273
-0.50829
-2.03492
-0.71165
-1.86828
-0.863599
-1.69648
-0.970923
-1.53316
-1.04786
-1.38974
-1.11258
-1.27297
-1.183
2.45422
2.53969
2.35083
2.59432
2.24098
2.60619
2.13262
2.56645
2.02897
2.47052
1.92866
2.31834
1.82708
2.11361
1.7185
1.86263
1.59832
1.57296
1.46448
1.25241
1.31782
0.908529
1.16105
0.548555
0.996955
0.179646
0.826422
-0.190819
0.647248
-0.555094
0.454243
-0.905125
0.240824
-1.23279
0.00167242
-1.53023
-0.264368
-1.79017
-0.552175
-2.00627
-0.849842
-2.17349
-1.14016
-2.28874
-1.40384
-2.35157
-1.62372
-2.36504
-1.78874
-2.3363
-1.89657
-2.27655
-1.95425
-2.20007
-1.97641
-2.12217
-1.9818
-2.05639
-1.98881
-2.01144
1.95336
1.75879
2.13407
1.56326
2.28741
1.37656
2.40176
1.20361
2.46913
1.04395
2.48592
0.892697
2.45254
0.742613
2.37211
0.586645
2.24904
0.4201
2.08761
0.241758
1.89126
0.0536102
1.66245
-0.140604
1.40318
-0.337419
1.11573
-0.535394
0.803373
-0.735835
0.470919
-0.942118
0.124857
-1.15775
-0.226717
-1.38383
-0.574375
-1.61687
-0.907742
-1.84786
-1.21604
-2.06304
-1.4889
-2.24652
-1.71744
-2.38395
-1.89573
-2.46621
-2.02224
-2.49214
-2.10085
-2.46925
-2.14114
-2.41223
-2.15723
-2.33963
-2.16549
-2.26939
-2.18113
-2.21472
0.730478
0.978364
0.489363
1.22094
0.264985
1.44655
0.0630574
1.64606
-0.116037
1.81403
-0.276886
1.94872
-0.427342
2.05096
-0.575994
2.12251
-0.729625
2.1645
-0.891463
2.17631
-1.06075
2.15531
-1.23365
2.09746
-1.40516
1.99836
-1.57108
1.85456
-1.7294
1.66462
-1.88051
1.42981
-2.02601
1.1544
-2.16679
0.845645
-2.30096
0.513523
-2.42264
0.170395
-2.52218
-0.169662
-2.58808
-0.491896
-2.60994
-0.782441
-2.58174
-1.0303
-2.50433
-1.22943
-2.38618
-1.38031
-2.2421
-1.49045
-2.09002
-1.57342
-1.94678
-1.64623
-1.82409
-1.72562
-0.489656
-0.723948
-0.239591
-0.934319
0.0172309
-1.11566
0.273069
-1.26737
0.522894
-1.39355
0.764699
-1.50189
0.998666
-1.60146
1.22556
-1.70019
1.4449
-1.80279
1.65363
-1.9098
1.84553
-2.01794
2.01168
-2.12169
2.14174
-2.21527
2.22552
-2.29442
2.25454
-2.35723
2.22321
-2.4037
2.12946
-2.4344
1.97493
-2.44873
1.76504
-2.44361
1.50884
-2.41336
1.21886
-2.35089
0.910592
-2.2501
0.601448
-2.10853
0.308928
-1.92954
0.0481528
-1.72297
-0.170817
-1.50385
-0.345176
-1.28945
-0.480326
-1.09522
-0.589047
-0.930898
-0.688838
-0.797922
-1.78476
-1.60987
-1.93064
-1.41057
-2.04449
-1.19124
-2.1264
-0.954548
-2.18024
-0.700902
-2.21306
-0.429005
-2.23345
-0.137274
-2.24939
0.17431
-2.26615
0.502598
-2.28509
0.840423
-2.30367
1.17679
-2.31659
1.49801
-2.31762
1.78946
-2.30147
2.03734
-2.26496
2.23017
-2.20714
2.35962
-2.12841
2.4208
-2.02915
2.41237
-1.90846
2.33661
-1.76382
2.19972
-1.59183
2.01216
-1.39007
1.78859
-1.15929
1.5471
-0.905201
1.30724
-0.638957
1.08719
-0.37588
0.900377
-0.132559
0.752582
0.0769912
0.640443
0.245031
0.551975
0.372486
0.469222
-2.4376
-2.4818
-2.36262
-2.49533
-2.25705
-2.47992
-2.12018
-2.43965
-1.94975
-2.38083
-1.74223
-2.31096
-1.49395
-2.23701
-1.2028
-2.16373
-0.869872
-2.09251
-0.500584
-2.02115
-0.104775
-1.94481
0.304152
-1.85756
0.710843
-1.75415
1.09981
-1.63126
1.45697
-1.48788
1.77048
-1.32469
2.03093
-1.14293
2.23116
-0.943258
2.36618
-0.725241
2.43362
-0.487904
2.43474
-0.231199
2.37563
0.0420914
2.26802
0.324822
2.12888
0.605137
1.97857
0.867753
1.83742
1.09681
1.72167
1.27961
1.63976
1.4102
1.5902
1.49161
1.56171
1.53587
-2.45284
-2.52524
-2.35559
-2.56931
-2.23729
-2.58113
-2.10272
-2.55578
-1.95764
-2.48746
-1.80817
-2.37023
-1.65963
-2.19944
-1.51531
-1.97318
-1.37561
-1.69342
-1.23798
-1.36641
-1.09773
-1.00212
-0.949431
-0.612878
-0.788531
-0.21172
-0.612492
0.189028
-0.421131
0.578476
-0.216069
0.947022
0.000406522
1.28561
0.226505
1.58498
0.461511
1.83567
0.705392
2.02908
0.957478
2.15963
1.21465
2.22726
1.46986
2.23925
1.71171
2.21042
1.92568
2.16118
2.0969
2.11356
2.21383
2.08627
2.27188
2.09014
2.27557
2.1253
2.23855
2.18104
-1.84794
-1.65496
-2.02566
-1.45239
-2.18212
-1.24582
-2.31073
-1.0407
-2.40434
-0.841879
-2.4557
-0.652811
-2.45843
-0.474763
-2.40808
-0.306384
-2.30319
-0.143925
-2.14565
0.0178173
-1.94043
0.184065
-1.69454
0.358581
-1.41559
0.542666
-1.11048
0.735002
-0.784882
0.932387
-0.443647
1.13109
-0.0922458
1.32822
0.261446
1.52249
0.605948
1.71399
0.926444
1.90287
1.20693
2.08748
1.43383
2.26261
1.60007
2.41884
1.708
2.54345
1.77013
2.62304
1.80685
2.64716
1.84185
2.61199
1.89612
2.52273
1.98257
2.39376
2.10265
2.24609
-0.558242
-0.808864
-0.310921
-1.05632
-0.0729113
-1.29382
0.150563
-1.51439
0.355634
-1.71109
0.540474
-1.87751
0.705837
-2.00837
0.85515
-2.10016
0.993951
-2.15141
1.12865
-2.16252
1.26492
-2.13497
1.40615
-2.07016
1.5525
-1.96822
1.70091
-1.82744
1.84619
-1.64469
1.98269
-1.41726
2.10612
-1.14564
2.21472
-0.836289
2.30922
-0.50319
2.39164
-0.166987
2.46317
0.148508
2.52204
0.421704
2.56231
0.63886
2.57426
0.79808
2.5466
0.910213
2.46998
0.996191
2.34083
1.08146
2.16409
1.18908
1.95373
1.33363
1.73053
1.51744
0.674461
0.914368
0.419378
1.13362
0.154703
1.32746
-0.114237
1.49268
-0.382525
1.62852
-0.645721
1.73719
-0.899931
1.82388
-1.14187
1.89599
-1.36884
1.96155
-1.57854
2.02734
-1.76853
2.0971
-1.93535
2.17041
-2.07359
2.24281
-2.17507
2.30704
-2.22888
2.35524
-2.22287
2.38131
-2.14666
2.38258
-1.99572
2.36034
-1.77522
2.3187
-1.50168
2.26239
-1.20141
2.19411
-0.905347
2.11258
-0.641944
2.01212
-0.430032
1.88426
-0.274165
1.72092
-0.163847
1.51834
-0.076933
1.28022
0.0138383
1.0189
0.133145
0.753704
0.296502
0.50664
1.9303
1.75105
2.08218
1.54809
2.20295
1.32424
2.28993
1.08128
2.34268
0.820099
2.36388
0.541234
2.35961
0.245392
2.33849
-0.0660051
2.31007
-0.390426
2.2826
-0.723894
2.26085
-1.06061
2.2447
-1.39241
2.229
-1.70802
2.20493
-1.99253
2.16246
-2.22757
2.09329
-2.39331
1.9933
-2.47249
1.86361
-2.45587
1.70994
-2.34715
1.54037
-2.16495
1.36229
-1.94021
1.17961
-1.70945
0.991389
-1.50576
0.792551
-1.35073
0.576505
-1.24948
0.338977
-1.1905
0.0816056
-1.14995
-0.18614
-1.0991
-0.447728
-1.01253
-0.683189
-0.87471
2.49488
2.54343
2.41856
2.56224
2.31501
2.54918
2.1828
2.50349
2.01879
2.42725
1.81905
2.32603
1.58005
2.20851
1.29988
2.08501
0.979076
1.96503
0.620946
1.85479
0.231426
1.75529
-0.181231
1.66173
-0.606462
1.56459
-1.03075
1.45222
-1.43648
1.31414
-1.80138
1.14421
-2.10018
0.942466
-2.30947
0.715159
-2.41499
0.47274
-2.41822
0.226599
-2.33871
-0.0144074
-2.21046
-0.246362
-2.07329
-0.470688
-1.96237
-0.692308
-1.89946
-0.91615
-1.88832
-1.14326
-1.91544
-1.36807
-1.9554
-1.57811
-1.97889
-1.7566
-1.96103
-1.88745
2.4055
2.47527
2.31472
2.5235
2.20158
2.54673
2.06464
2.53859
1.90434
2.49087
1.72432
2.39529
1.53183
2.24549
1.33657
2.03852
1.14855
1.7756
0.975282
1.46167
0.819425
1.10411
0.677526
0.711186
0.540555
0.291321
0.396182
-0.14565
0.232246
-0.585394
0.0404024
-1.00606
-0.18121
-1.37875
-0.427166
-1.6736
-0.686161
-1.86995
-0.944189
-1.96553
-1.18848
-1.97939
-1.41081
-1.94684
-1.60909
-1.90875
-1.7865
-1.89988
-1.94859
-1.93997
-2.0994
-2.03015
-2.23793
-2.15475
-2.35675
-2.28753
-2.44333
-2.40008
-2.48404
-2.46959
1.7001
1.51557
1.87836
1.32452
2.04689
1.12475
2.19803
0.914386
2.32083
0.694019
2.40302
0.467848
2.43372
0.243424
2.40579
0.0299365
2.31745
-0.164468
2.17227
-0.335458
1.97746
-0.484421
1.7406
-0.618734
1.46622
-0.750131
1.15444
-0.891505
0.80407
-1.05306
0.419822
-1.23901
0.0197403
-1.44592
-0.363716
-1.6633
-0.69231
-1.87633
-0.936944
-2.06991
-1.09029
-2.23264
-1.16993
-2.35941
-1.21116
-2.45174
-1.25408
-2.51567
-1.33105
-2.55809
-1.45842
-2.58279
-1.63426
-2.58791
-1.84138
-2.56591
-2.05423
-2.50635
-2.24702
-2.40061
0.352549
0.594344
0.12357
0.84785
-0.0953989
1.10677
-0.308682
1.35989
-0.519455
1.59296
-0.727699
1.79157
-0.929492
1.94445
-1.11792
2.04608
-1.28533
2.09791
-1.42619
2.10743
-1.53959
2.08439
-1.63034
2.03477
-1.70829
1.95493
-1.78577
1.83018
-1.87401
1.64181
-1.9794
1.38099
-2.10121
1.06156
-2.23113
0.721624
-2.35537
0.410045
-2.45831
0.165188
-2.52679
-0.00093681
-2.55355
-0.104769
-2.53862
-0.180958
-2.48827
-0.267396
-2.41177
-0.392609
-2.31735
-0.568912
-2.20872
-0.791685
-2.0837
-1.04354
-1.93554
-1.30138
-1.75674
-1.54381
-0.899247
-1.11684
-0.64987
-1.30573
-0.371113
-1.4724
-0.0714901
-1.62376
0.23555
-1.76445
0.534315
-1.89513
0.810411
-2.01239
1.05427
-2.1103
1.26383
-2.18302
1.44533
-2.22756
1.6111
-2.24572
1.77311
-2.24441
1.93345
-2.2341
2.07623
-2.22573
2.16803
-2.22721
2.17105
-2.24049
2.06438
-2.2603
1.86075
-2.2753
1.60595
-2.27104
1.35879
-2.23414
1.16404
-2.1562
1.03529
-2.03609
0.955826
-1.87991
0.892161
-1.69857
0.8101
-1.50388
0.686117
-1.30451
0.512148
-1.10346
0.294639
-0.897953
0.0496427
-0.681974
-0.203915
-0.450519
-2.10284
-1.94453
-2.21774
-1.73974
-2.29716
-1.49184
-2.35109
-1.2105
-2.38845
-0.909744
-2.41463
-0.604795
-2.43039
-0.308288
-2.43249
-0.0267108
-2.41574
0.242252
-2.37575
0.510121
-2.31136
0.793682
-2.22598
1.10542
-2.12703
1.44098
-2.02391
1.7712
-1.92486
2.047
-1.83387
2.21837
-1.74887
2.25947
-1.66178
2.18515
-1.56062
2.04661
-1.43318
1.90629
-1.27092
1.80824
-1.07191
1.76291
-0.841734
1.75211
-0.591939
1.7449
-0.336628
1.71274
-0.0882699
1.63823
0.145707
1.5175
0.364301
1.35784
0.571731
1.17255
0.774075
0.97503
-2.60279
-2.61486
-2.53972
-2.5845
-2.42279
-2.52358
-2.25575
-2.44419
-2.04815
-2.35571
-1.81296
-2.26292
-1.56336
-2.1657
-1.30914
-2.06028
-1.05316
-1.9417
-0.788866
-1.80639
-0.500618
-1.65417
-0.169858
-1.48882
0.21285
-1.31704
0.635619
-1.14609
1.06162
-0.980991
1.43837
-0.822298
1.71709
-0.665331
1.8745
-0.501323
1.92637
-0.320214
1.92133
-0.114226
1.91517
0.118982
1.94292
0.374716
2.00816
0.641848
2.09178
0.90552
2.16781
1.15108
2.21541
1.36795
2.22416
1.55197
2.19396
1.70552
2.13192
1.83517
2.04752
1.94795
-2.40433
-2.50253
-2.26477
-2.55095
-2.09624
-2.54691
-1.91237
-2.49376
-1.72504
-2.39965
-1.54205
-2.27512
-1.36606
-2.13017
-1.19512
-1.97105
-1.0244
-1.79704
-0.848702
-1.59851
-0.664786
-1.35889
-0.472711
-1.06293
-0.275816
-0.707937
-0.0793063
-0.310206
0.112004
0.0976205
0.295925
0.475197
0.474205
0.786031
0.652314
1.01198
0.837624
1.1649
1.03652
1.28229
1.25141
1.40465
1.47873
1.55272
1.70874
1.72251
1.92738
1.89623
2.11964
2.05529
2.27338
2.18772
2.38235
2.2898
2.44727
2.36432
2.4747
2.41717
2.47396
2.45338
-1.63861
-1.41357
-1.83144
-1.16797
-1.98433
-0.91515
-2.09456
-0.667558
-2.16424
-0.434348
-2.19902
-0.21995
-2.20592
-0.0238946
-2.19091
0.158053
-2.15622
0.33187
-2.09789
0.502998
-2.00528
0.674552
-1.86539
0.84658
-1.67124
1.01656
-1.42743
1.18093
-1.14797
1.337
-0.851057
1.48447
-0.557284
1.62596
-0.288166
1.76612
-0.0572804
1.9096
0.141192
2.05856
0.330472
2.21064
0.532993
2.35817
0.754878
2.48922
0.98686
2.59012
1.21494
2.6489
1.42887
2.65847
1.62481
2.61843
1.80421
2.53489
1.97128
2.41835
2.1298
2.28029
-0.233538
-0.502175
0.0418432
-0.754142
0.312492
-0.98259
0.567411
-1.1844
0.79808
-1.35985
0.999893
-1.51137
1.17267
-1.64192
1.32008
-1.75298
1.44822
-1.84263
1.56365
-1.90437
1.67166
-1.92906
1.77505
-1.91085
1.87395
-1.8522
1.96664
-1.76159
2.05087
-1.64601
2.12535
-1.5084
2.19062
-1.35282
2.24896
-1.18845
2.30322
-1.02349
2.35507
-0.855287
2.40323
-0.672364
2.44241
-0.467611
2.46361
-0.245473
2.45588
-0.0166953
2.40899
0.209987
2.31636
0.431509
2.17715
0.649734
1.99686
0.868999
1.78609
1.09338
1.55782
1.32411
0.994568
1.24603
0.733356
1.47922
0.470164
1.68618
0.210977
1.86089
-0.0404427
2.00032
-0.28232
2.10487
-0.514001
2.17809
-0.734645
2.22583
-0.941726
2.2548
-1.12991
2.27113
-1.29171
2.27923
-1.4214
2.28122
-1.52025
2.27714
-1.59645
2.26575
-1.6579
2.24564
-1.70512
2.21616
-1.73224
2.17783
-1.73421
2.1319
-1.71133
2.07938
-1.66528
2.01974
-1.59314
1.94991
-1.49076
1.86416
-1.36033
1.75504
-1.21048
1.6152
-1.04965
1.43976
-0.881409
1.22829
-0.704078
0.985716
-0.512948
0.721885
-0.302925
0.449591
-0.0709982
0.181825
2.15977
1.98051
2.3084
1.77589
2.42232
1.55159
2.49934
1.31296
2.53944
1.06441
2.54489
0.809313
2.5199
0.550472
2.47005
0.291084
2.40142
0.0358406
2.31974
-0.208801
2.22957
-0.436409
2.13381
-0.64456
2.03363
-0.837514
1.92877
-1.02307
1.81824
-1.20559
1.701
-1.38211
1.57653
-1.54452
1.44487
-1.68513
1.30626
-1.79977
1.16052
-1.88543
1.00631
-1.93841
0.840845
-1.95789
0.660285
-1.94845
0.460774
-1.91678
0.239967
-1.86692
-0.00145247
-1.79842
-0.258842
-1.70731
-0.523661
-1.5881
-0.784663
-1.43608
-1.02995
-1.24931
2.56977
2.6052
2.49527
2.6013
2.38417
2.56005
2.24066
2.48533
2.06973
2.38226
1.87629
2.2565
1.66446
2.11366
1.43756
1.95883
1.19869
1.79628
0.951496
1.6293
0.70044
1.46012
0.449785
1.2899
0.201156
1.11885
-0.0474765
0.946507
-0.298845
0.772007
-0.552465
0.59446
-0.803792
0.41318
-1.04636
0.227748
-1.27481
0.0378859
-1.48576
-0.156775
-1.67587
-0.35685
-1.84173
-0.563111
-1.98233
-0.776059
-2.09924
-0.995186
-2.19421
-1.21817
-2.26695
-1.44031
-2.31462
-1.65449
-2.33246
-1.85186
-2.31514
-2.02319
-2.25838
-2.16047
2.30286
2.38481
2.18196
2.42526
2.02774
2.42497
1.84789
2.38748
1.65081
2.31784
1.4442
2.22118
1.23416
2.10141
1.02474
1.96048
0.818155
1.79849
0.615283
1.6149
0.416257
1.41053
0.220929
1.18829
0.0290923
0.951301
-0.159523
0.70181
-0.345346
0.443046
-0.529035
0.180267
-0.711433
-0.081097
-0.893401
-0.337934
-1.07558
-0.590384
-1.25816
-0.839742
-1.4407
-1.08515
-1.62199
-1.32326
-1.79992
-1.55037
-1.97144
-1.76352
-2.13243
-1.96021
-2.27775
-2.13758
-2.40146
-2.29184
-2.49733
-2.41825
-2.55959
-2.51171
-2.58385
-2.5678
1.47755
1.2659
1.65598
1.02886
1.79742
0.776974
1.9023
0.521541
1.97437
0.272468
2.01902
0.0366986
2.04122
-0.182457
2.04352
-0.384976
2.02464
-0.573036
1.97977
-0.749649
1.90378
-0.91748
1.79541
-1.0782
1.65772
-1.23246
1.49445
-1.38027
1.30938
-1.52164
1.10895
-1.65695
0.901442
-1.78705
0.692458
-1.91299
0.481255
-2.03537
0.261789
-2.15383
0.0283623
-2.26652
-0.219301
-2.37002
-0.47634
-2.45956
-0.736352
-2.52948
-0.993997
-2.57398
-1.24544
-2.58779
-1.48756
-2.56687
-1.71693
-2.5089
-1.9293
-2.41358
-2.11963
-2.28265
0.0727703
0.32919
-0.198513
0.562728
-0.47298
0.770181
-0.737574
0.952893
-0.980614
1.11531
-1.19414
1.2628
-1.37515
1.39911
-1.52546
1.52388
-1.65031
1.63138
-1.75633
1.71278
-1.84953
1.76211
-1.93394
1.78034
-2.01124
1.77138
-2.08128
1.73618
-2.1431
1.67492
-2.19603
1.59234
-2.24028
1.49609
-2.27694
1.3898
-2.30733
1.26883
-2.33197
1.12402
-2.34977
0.949967
-2.35744
0.74905
-2.34973
0.52829
-2.32019
0.294439
-2.26237
0.0517786
-2.17116
-0.197534
-2.04384
-0.45215
-1.88073
-0.710213
-1.68519
-0.968412
-1.46305
-1.2216
-1.11325
-1.36239
-0.867691
-1.60444
-0.63181
-1.8263
-0.406679
-2.01548