# vtk DataFile Version 3.1
vtk output
ASCII
DATASET POLYDATA
POINTS 4260 FLOAT
2.83277e-16          -1    -3.14159
-0.104528 -0.994522  -3.14159
 0.104528 -0.994522  -3.14159
-0.207912 -0.978148  -3.14159
 0.207912 -0.978148  -3.14159
-0.309017 -0.951057  -3.14159
 0.309017 -0.951057  -3.14159
-0.406737 -0.913545  -3.14159
 0.406737 -0.913545  -3.14159
     -0.5 -0.866025  -3.14159
      0.5 -0.866025  -3.14159
-0.587785 -0.809017  -3.14159
 0.587785 -0.809017  -3.14159
-0.669131 -0.743145  -3.14159
 0.669131 -0.743145  -3.14159
-0.743145 -0.669131  -3.14159
 0.743145 -0.669131  -3.14159
-0.809017 -0.587785  -3.14159
 0.809017 -0.587785  -3.14159
-0.866025      -0.5  -3.14159
0.866025     -0.5 -3.14159
-0.913545 -0.406737  -3.14159
 0.913545 -0.406737  -3.14159
-0.951057 -0.309017  -3.14159
 0.951057 -0.309017  -3.14159
-0.978148 -0.207912  -3.14159
 0.978148 -0.207912  -3.14159
-0.994522 -0.104528  -3.14159
 0.994522 -0.104528  -3.14159
          -1 -5.66554e-16     -3.14159
       1        0 -3.14159
-0.994522  0.104528  -3.14159
0.994522 0.104528 -3.14159
-0.978148  0.207912  -3.14159
0.978148 0.207912 -3.14159
-0.951057  0.309017  -3.14159
0.951057 0.309017 -3.14159
-0.913545  0.406737  -3.14159
0.913545 0.406737 -3.14159
-0.866025       0.5  -3.14159
0.866025      0.5 -3.14159
-0.809017  0.587785  -3.14159
0.809017 0.587785 -3.14159
-0.743145  0.669131  -3.14159
0.743145 0.669131 -3.14159
-0.669131  0.743145  -3.14159
0.669131 0.743145 -3.14159
-0.587785  0.809017  -3.14159
0.587785 0.809017 -3.14159
    -0.5 0.866025 -3.14159
     0.5 0.866025 -3.14159
-0.406737  0.913545  -3.14159
0.406737 0.913545 -3.14159
-0.309017  0.951057  -3.14159
0.309017 0.951057 -3.14159
-0.207912  0.978148  -3.14159
0.207912 0.978148 -3.14159
-0.104528  0.994522  -3.14159
0.104528 0.994522 -3.14159
-1.83697e-16            1     -3.14159
-0.052336  -0.99863   -3.0509
0.052336 -0.99863  -3.0509
-0.156434 -0.987688   -3.0509
 0.156434 -0.987688   -3.0509
-0.258819 -0.965926   -3.0509
 0.258819 -0.965926   -3.0509
-0.358368  -0.93358   -3.0509
0.358368 -0.93358  -3.0509
 -0.45399 -0.891007   -3.0509
  0.45399 -0.891007   -3.0509
-0.544639 -0.838671   -3.0509
 0.544639 -0.838671   -3.0509
 -0.62932 -0.777146   -3.0509
  0.62932 -0.777146   -3.0509
-0.707107 -0.707107   -3.0509
 0.707107 -0.707107   -3.0509
-0.777146  -0.62932   -3.0509
0.777146 -0.62932  -3.0509
-0.838671 -0.544639   -3.0509
 0.838671 -0.544639   -3.0509
-0.891007  -0.45399   -3.0509
0.891007 -0.45399  -3.0509
 -0.93358 -0.358368   -3.0509
  0.93358 -0.358368   -3.0509
-0.965926 -0.258819   -3.0509
 0.965926 -0.258819   -3.0509
-0.987688 -0.156434   -3.0509
 0.987688 -0.156434   -3.0509
 -0.99863 -0.052336   -3.0509
  0.99863 -0.052336   -3.0509
-0.99863 0.052336  -3.0509
 0.99863 0.052336  -3.0509
-0.987688  0.156434   -3.0509
0.987688 0.156434  -3.0509
-0.965926  0.258819   -3.0509
0.965926 0.258819  -3.0509
-0.93358 0.358368  -3.0509
 0.93358 0.358368  -3.0509
-0.891007   0.45399   -3.0509
0.891007  0.45399  -3.0509
-0.838671  0.544639   -3.0509
0.838671 0.544639  -3.0509
-0.777146   0.62932   -3.0509
0.777146  0.62932  -3.0509
-0.707107  0.707107   -3.0509
0.707107 0.707107  -3.0509
-0.62932 0.777146  -3.0509
 0.62932 0.777146  -3.0509
-0.544639  0.838671   -3.0509
0.544639 0.838671  -3.0509
-0.45399 0.891007  -3.0509
 0.45399 0.891007  -3.0509
-0.358368   0.93358   -3.0509
0.358368  0.93358  -3.0509
-0.258819  0.965926   -3.0509
0.258819 0.965926  -3.0509
-0.156434  0.987688   -3.0509
0.156434 0.987688  -3.0509
-0.052336   0.99863   -3.0509
0.052336  0.99863  -3.0509
6.12323e-17          -1    -2.96021
-0.104528 -0.994522  -2.96021
 0.104528 -0.994522  -2.96021
-0.207912 -0.978148  -2.96021
 0.207912 -0.978148  -2.96021
-0.309017 -0.951057  -2.96021
 0.309017 -0.951057  -2.96021
-0.406737 -0.913545  -2.96021
 0.406737 -0.913545  -2.96021
     -0.5 -0.866025  -2.96021
      0.5 -0.866025  -2.96021
-0.587785 -0.809017  -2.96021
 0.587785 -0.809017  -2.96021
-0.669131 -0.743145  -2.96021
 0.669131 -0.743145  -2.96021
-0.743145 -0.669131  -2.96021
 0.743145 -0.669131  -2.96021
-0.809017 -0.587785  -2.96021
 0.809017 -0.587785  -2.96021
-0.866025      -0.5  -2.96021
0.866025     -0.5 -2.96021
-0.913545 -0.406737  -2.96021
 0.913545 -0.406737  -2.96021
-0.951057 -0.309017  -2.96021
 0.951057 -0.309017  -2.96021
-0.978148 -0.207912  -2.96021
 0.978148 -0.207912  -2.96021
-0.994522 -0.104528  -2.96021
 0.994522 -0.104528  -2.96021
          -1 -5.66554e-16     -2.96021
          1 2.77556e-17    -2.96021
-0.994522  0.104528  -2.96021
0.994522 0.104528 -2.96021
-0.978148  0.207912  -2.96021
0.978148 0.207912 -2.96021
-0.951057  0.309017  -2.96021
0.951057 0.309017 -2.96021
-0.913545  0.406737  -2.96021
0.913545 0.406737 -2.96021
-0.866025       0.5  -2.96021
0.866025      0.5 -2.96021
-0.809017  0.587785  -2.96021
0.809017 0.587785 -2.96021
-0.743145  0.669131  -2.96021
0.743145 0.669131 -2.96021
-0.669131  0.743145  -2.96021
0.669131 0.743145 -2.96021
-0.587785  0.809017  -2.96021
0.587785 0.809017 -2.96021
    -0.5 0.866025 -2.96021
     0.5 0.866025 -2.96021
-0.406737  0.913545  -2.96021
0.406737 0.913545 -2.96021
-0.309017  0.951057  -2.96021
0.309017 0.951057 -2.96021
-0.207912  0.978148  -2.96021
0.207912 0.978148 -2.96021
-0.104528  0.994522  -2.96021
0.104528 0.994522 -2.96021
-1.83697e-16            1     -2.96021
-0.052336  -0.99863  -2.86952
0.052336 -0.99863 -2.86952
-0.156434 -0.987688  -2.86952
 0.156434 -0.987688  -2.86952
-0.258819 -0.965926  -2.86952
 0.258819 -0.965926  -2.86952
-0.358368  -0.93358  -2.86952
0.358368 -0.93358 -2.86952
 -0.45399 -0.891007  -2.86952
  0.45399 -0.891007  -2.86952
-0.544639 -0.838671  -2.86952
 0.544639 -0.838671  -2.86952
 -0.62932 -0.777146  -2.86952
  0.62932 -0.777146  -2.86952
-0.707107 -0.707107  -2.86952
 0.707107 -0.707107  -2.86952
-0.777146  -0.62932  -2.86952
0.777146 -0.62932 -2.86952
-0.838671 -0.544639  -2.86952
 0.838671 -0.544639  -2.86952
-0.891007  -0.45399  -2.86952
0.891007 -0.45399 -2.86952
 -0.93358 -0.358368  -2.86952
  0.93358 -0.358368  -2.86952
-0.965926 -0.258819  -2.86952
 0.965926 -0.258819  -2.86952
-0.987688 -0.156434  -2.86952
 0.987688 -0.156434  -2.86952
 -0.99863 -0.052336  -2.86952
  0.99863 -0.052336  -2.86952
-0.99863 0.052336 -2.86952
 0.99863 0.052336 -2.86952
-0.987688  0.156434  -2.86952
0.987688 0.156434 -2.86952
-0.965926  0.258819  -2.86952
0.965926 0.258819 -2.86952
-0.93358 0.358368 -2.86952
 0.93358 0.358368 -2.86952
-0.891007   0.45399  -2.86952
0.891007  0.45399 -2.86952
-0.838671  0.544639  -2.86952
0.838671 0.544639 -2.86952
-0.777146   0.62932  -2.86952
0.777146  0.62932 -2.86952
-0.707107  0.707107  -2.86952
0.707107 0.707107 -2.86952
-0.62932 0.777146 -2.86952
 0.62932 0.777146 -2.86952
-0.544639  0.838671  -2.86952
0.544639 0.838671 -2.86952
-0.45399 0.891007 -2.86952
 0.45399 0.891007 -2.86952
-0.358368   0.93358  -2.86952
0.358368  0.93358 -2.86952
-0.258819  0.965926  -2.86952
0.258819 0.965926 -2.86952
-0.156434  0.987688  -2.86952
0.156434 0.987688 -2.86952
-0.052336   0.99863  -2.86952
0.052336  0.99863 -2.86952
6.12323e-17          -1    -2.77883
-0.104528 -0.994522  -2.77883
 0.104528 -0.994522  -2.77883
-0.207912 -0.978148  -2.77883
 0.207912 -0.978148  -2.77883
-0.309017 -0.951057  -2.77883
 0.309017 -0.951057  -2.77883
-0.406737 -0.913545  -2.77883
 0.406737 -0.913545  -2.77883
     -0.5 -0.866025  -2.77883
      0.5 -0.866025  -2.77883
-0.587785 -0.809017  -2.77883
 0.587785 -0.809017  -2.77883
-0.669131 -0.743145  -2.77883
 0.669131 -0.743145  -2.77883
-0.743145 -0.669131  -2.77883
 0.743145 -0.669131  -2.77883
-0.809017 -0.587785  -2.77883
 0.809017 -0.587785  -2.77883
-0.866025      -0.5  -2.77883
0.866025     -0.5 -2.77883
-0.913545 -0.406737  -2.77883
 0.913545 -0.406737  -2.77883
-0.951057 -0.309017  -2.77883
 0.951057 -0.309017  -2.77883
-0.978148 -0.207912  -2.77883
 0.978148 -0.207912  -2.77883
-0.994522 -0.104528  -2.77883
 0.994522 -0.104528  -2.77883
          -1 -1.22465e-16     -2.77883
          1 5.55112e-17    -2.77883
-0.994522  0.104528  -2.77883
0.994522 0.104528 -2.77883
-0.978148  0.207912  -2.77883
0.978148 0.207912 -2.77883
-0.951057  0.309017  -2.77883
0.951057 0.309017 -2.77883
-0.913545  0.406737  -2.77883
0.913545 0.406737 -2.77883
-0.866025       0.5  -2.77883
0.866025      0.5 -2.77883
-0.809017  0.587785  -2.77883
0.809017 0.587785 -2.77883
-0.743145  0.669131  -2.77883
0.743145 0.669131 -2.77883
-0.669131  0.743145  -2.77883
0.669131 0.743145 -2.77883
-0.587785  0.809017  -2.77883
0.587785 0.809017 -2.77883
    -0.5 0.866025 -2.77883
     0.5 0.866025 -2.77883
-0.406737  0.913545  -2.77883
0.406737 0.913545 -2.77883
-0.309017  0.951057  -2.77883
0.309017 0.951057 -2.77883
-0.207912  0.978148  -2.77883
0.207912 0.978148 -2.77883
-0.104528  0.994522  -2.77883
0.104528 0.994522 -2.77883
-1.83697e-16            1     -2.77883
-0.052336  -0.99863  -2.68814
0.052336 -0.99863 -2.68814
-0.156434 -0.987688  -2.68814
 0.156434 -0.987688  -2.68814
-0.258819 -0.965926  -2.68814
 0.258819 -0.965926  -2.68814
-0.358368  -0.93358  -2.68814
0.358368 -0.93358 -2.68814
 -0.45399 -0.891007  -2.68814
  0.45399 -0.891007  -2.68814
-0.544639 -0.838671  -2.68814
 0.544639 -0.838671  -2.68814
 -0.62932 -0.777146  -2.68814
  0.62932 -0.777146  -2.68814
-0.707107 -0.707107  -2.68814
 0.707107 -0.707107  -2.68814
-0.777146  -0.62932  -2.68814
0.777146 -0.62932 -2.68814
-0.838671 -0.544639  -2.68814
 0.838671 -0.544639  -2.68814
-0.891007  -0.45399  -2.68814
0.891007 -0.45399 -2.68814
 -0.93358 -0.358368  -2.68814
  0.93358 -0.358368  -2.68814
-0.965926 -0.258819  -2.68814
 0.965926 -0.258819  -2.68814
-0.987688 -0.156434  -2.68814
 0.987688 -0.156434  -2.68814
 -0.99863 -0.052336  -2.68814
  0.99863 -0.052336  -2.68814
-0.99863 0.052336 -2.68814
 0.99863 0.052336 -2.68814
-0.987688  0.156434  -2.68814
0.987688 0.156434 -2.68814
-0.965926  0.258819  -2.68814
0.965926 0.258819 -2.68814
-0.93358 0.358368 -2.68814
 0.93358 0.358368 -2.68814
[...]
POINT_DATA 4260
SCALARS Field double
LOOKUP_TABLE default
1.86542
0.297168
2.46593
-1.43179
1.79218
-2.4287
0.193772
-2.17574
-1.50392
-0.796904
-2.42556
1.00327
-2.09714
2.29974
-0.68834
2.42305
1.075
1.30337
2.28465
-0.491885
2.31856
-2.04607
1.16
-2.5632
-0.594266
-1.77571
-2.04054
-0.0815373
-2.43436
1.65713
-1.57341
2.55447
0.0991314
2.1541
1.72162
0.660946
2.4581
-1.16311
1.92897
-2.3884
0.405689
-2.39358
-1.32793
-1.18131
-2.37895
0.624655
-2.20598
2.09912
-0.897343
2.49067
0.87347
1.60541
2.19354
-0.0963728
2.3817
-1.73724
1.33941
-2.47466
-0.397739
-1.93385
0.3198
1.87735
-1.40761
2.46272
-2.4126
1.77618
-2.17354
0.172944
-0.808359
-1.51981
0.983854
-2.42963
2.28053
-2.08858
2.41089
-0.672609
1.30118
1.08903
-0.485544
2.28916
-2.03545
2.31066
-2.55279
1.1431
-1.7682
-0.612156
-0.0772574
-2.05075
1.65934
-2.4319
2.55569
-1.55934
2.15411
0.1182
0.658214
1.73674
-1.17014
2.46241
-2.39969
1.92108
-2.40645
0.390313
-1.19088
-1.34224
0.623443
-2.38404
2.10883
-2.19824
2.50946
-0.87961
1.62696
0.893123
-0.0806036
2.20555
-1.73424
2.37965
-2.48653
1.32312
-1.95641
-0.422064
0.343592
-1.38407
1.89145
-2.39921
2.4618
-2.17564
1.76197
-0.824479
0.153196
0.961007
-1.53517
2.2604
-2.43337
2.40076
-2.07962
1.30336
-0.656316
-0.474028
1.10363
-2.02063
2.29394
-2.54052
2.30244
-1.76165
1.12521
-0.0762405
-0.631554
1.65719
-2.06269
2.55278
-2.43096
2.1513
-1.54631
0.654568
0.136735
-1.17618
1.75168
-2.40848
2.46655
-2.41595
1.91273
-1.19702
0.374149
0.62492
-1.35742
2.11983
-2.38964
2.52771
-2.19012
1.64618
-0.860311
-0.0683846
0.915407
-1.73515
2.22076
-2.50167
2.38053
-1.98075
1.30862
-0.446305
-1.36151
0.367446
-2.38819
1.90613
-2.18132
2.46158
-0.844497
1.74842
0.935262
0.134183
2.23964
-1.54956
2.39288
-2.43585
1.31012
-2.06919
-0.457113
-0.638618
-2.00155
1.11929
-2.52675
2.29924
-1.75695
2.29416
-0.0797335
1.10675
1.64948
-0.651818
2.54516
-2.07556
2.14608
-2.43087
0.651342
-1.53397
-1.17937
0.154661
-2.41305
1.76589
-2.42117
2.46969
-1.19994
1.903
0.627881
0.356318
2.13035
-1.37422
2.54379
-2.39634
1.66215
-2.18213
-0.0597254
-0.839879
-1.73911
0.940025
-2.51863
2.23908
-2.00534
2.38467
-0.469179
1.29677
-1.34023
-2.37887
0.390188
-2.18917
1.91978
-0.866883
2.46061
0.907727
1.7347
2.21866
0.115777
2.38696
-1.56259
1.32083
-2.43655
-0.435415
-2.057
-1.97866
-0.619479
-2.5118
1.13591
-1.75439
2.30509
-0.088138
2.28622
1.63579
1.08858
2.53267
-0.67184
2.13878
-2.08827
0.649453
-2.43082
-1.17842
-1.52197
-2.41221
0.171959
-2.42151
1.77916
-1.19989
2.47155
0.631208
1.89166
2.13883
0.336594
2.55624
-1.39301
1.67402
-2.40475
-0.0545533
-2.17517
-1.7451
-0.819421
-2.53581
0.965952
-2.02837
2.25991
-0.489183
2.3921
1.28838
-2.37048
-1.32057
-2.19754
0.410745
-0.889625
1.93119
0.880056
2.45801
2.19815
1.72051
2.38259
0.0981139
1.33431
-1.57413
-0.41035
-2.43563
-1.95306
-2.04359
-2.49611
-0.599687
-1.7539
1.15292
-0.101051
2.31148
1.61666
2.27922
2.5158
1.07173
2.12992
-0.690484
0.649502
-2.09997
-1.17271
-2.43032
-2.40551
-1.51007
-2.41688
0.188801
-1.19738
1.79185
0.633886
2.47271
2.14402
1.87932
2.56398
0.315377
1.68125
-1.41387
-0.052592
-2.41562
-1.75212
-2.17051
-2.5517
-0.800459
-2.04827
0.991758
-0.505076
2.28231
1.28406
2.40265
-2.36259
-2.20503
-1.30289
-0.91072
0.428425
0.854095
1.9399
2.17906
2.45382
2.3795
1.70618
1.34918
0.0813923
-0.38379
-1.58449
-1.9263
-2.43411
-2.48048
-2.03038
-1.75527
-0.580502
-0.11752
1.16961
1.59329
2.31847
2.49568
2.27384
2.1203
1.05702
0.651895
-0.707165
-1.1622
-2.11045
-2.39319
-2.42944
-2.40788
-1.4982
-1.19327
0.205714
0.634934
1.80498
2.14502
2.47454
2.56647
1.86732
1.6839
0.29348
-0.0532386
-1.43675
-1.75915
-2.42965
-2.56513
-2.16946
-2.06401
-0.784539
-0.516255
1.01602
1.28386
2.3052
2.41578
-2.21093
-2.35521
-0.928768
-1.2875
0.831434
0.443169
2.16249
1.94633
2.37767
2.44887
1.36422
1.69245
-0.357615
0.0656684
-1.90023
-1.59453
-2.46591
-2.43351
-1.75836
-2.01905
-0.136429
-0.56315
1.56731
1.18559
2.47384
2.32635
2.11093
2.27057
0.656971
1.04468
-1.14715
-0.72222
-2.37605
-2.1204
-2.39559
-2.42874
-1.18873
-1.48636
0.633302
0.223556
2.14118
1.82015
2.56367
2.47886
1.68256
1.85716
-0.0554312
0.271797
-1.76497
-1.46151
-2.57517
-2.44731
-2.07523
-2.17284
-0.522932
-0.772698
1.28707
1.03762
2.43045
2.32749
-2.21536
-0.943334
-2.34869
0.81299
-1.27447
2.14926
0.455602
2.37723
1.95178
1.37866
2.44452
-0.333377
1.6801
-1.8765
0.0507147
-2.45343
-1.6055
-1.76316
-2.43553
-0.156728
-2.01098
1.54035
-0.548228
2.45187
1.20104
2.10285
2.33558
0.664987
2.26951
-1.12807
1.03404
-2.3551
-0.736953
-2.38127
-2.13128
-1.18503
-2.42912
0.627986
-1.47443
2.13205
0.243389
2.55585
1.83894
1.6782
2.48725
-0.0576973
1.85002
-1.76815
0.250978
-2.58094
-1.48783
-2.08194
-2.46845
-0.526078
-2.1806
1.29212
-0.765087
2.44511
1.05593
2.34795
-0.954995
-2.21921
0.798714
-2.34362
2.13967
-1.2635
2.3784
0.466964
1.39212
1.958
-0.312056
2.44229
-1.85627
1.66967
-2.44383
0.035947
-1.76962
-1.61864
-0.177483
-2.44136
1.51384
-2.00665
2.43109
-0.535318
2.09681
1.21678
0.675903
2.34665
-1.10566
2.27022
-2.33139
1.02362
-2.36608
-0.753366
-1.1832
-2.14478
0.618281
-2.43138
2.11736
-1.46216
2.54337
0.266164
1.67189
1.8624
-0.0584911
2.50045
-1.76713
1.8463
-2.58146
0.231382
-2.08427
-1.51503
-0.527015
-2.49192
1.29695
-2.19152
2.45762
-0.760965
2.36521
1.07069
-0.965158
0.787674
-2.22376
2.13345
-2.34049
2.38123
-1.25392
1.40457
0.478872
-0.294001
1.96678
-1.84013
2.44332
-2.43753
1.66127
-1.77755
0.0205658
-0.19787
-1.6349
1.48892
-2.45128
2.41246
-2.00534
2.09308
-0.523043
0.689224
1.23406
-1.08091
2.35983
-2.30602
2.27167
-2.35085
1.01149
-1.18367
-0.773514
0.604058
-2.16228
2.09724
-2.43589
2.52665
-1.44927
1.66444
0.292235
-0.0565975
1.89046
-1.76051
2.51791
-2.57572
1.8455
-2.08217
0.21325
-0.526904
-1.54178
1.29938
-2.51555
2.4656
-2.20329
2.37767
-0.758956
1.08177
0.778402
-0.975592
2.12984
-2.2303
2.38564
-2.3395
1.41625
-1.2448
-0.279077
0.492897
-1.82815
1.97949
-2.43451
2.44808
-1.78661
1.65441
-0.217081
0.00376842
1.4666
-1.65459
2.39661
-2.46451
2.09153
-2.00528
0.703994
-0.50942
-1.05524
1.25413
-2.28025
2.37504
-2.33614
2.27255
-1.18623
0.995863
0.58601
-0.798745
2.07248
-2.18426
2.50626
-2.44247
1.65627
-1.43557
-0.0515029
0.321003
-1.74758
1.92161
-2.56299
2.5378
-2.07533
1.84644
-0.526388
0.196918
1.29776
-1.56604
2.46693
-2.53632
2.38367
-2.21311
1.0889
-0.75754
0.769277
2.12791
-0.987954
2.39157
-2.23983
1.42763
-2.34052
-0.266749
-1.2351
-1.81995
0.510226
-2.43456
1.9967
-1.7964
2.45622
-0.234354
1.64814
1.44781
-0.0151311
2.38415
-1.67734
2.09192
-2.47945
0.718957
-2.00418
-1.03048
-0.492447
-2.25561
1.27781
-2.32253
2.3918
-1.19023
2.27167
0.565681
0.975742
2.04466
-0.829163
2.48318
-2.20998
1.64752
-2.45035
-0.0436112
-1.42128
-1.72872
0.350787
-2.54325
1.95303
-2.0635
2.55734
-0.525451
1.8477
1.29143
0.183046
2.46027
-1.58531
2.38179
-2.55096
1.09158
-2.21838
-0.755643
2.12686
0.758905
2.39913
-1.00351
1.43947
-2.25281
-0.256102
-2.34313
-1.81499
-1.22393
-2.4375
0.531435
-1.80679
2.01808
-0.249248
2.4666
1.43331
1.64123
2.37578
-0.0365928
2.09422
-1.70228
0.733015
-2.49416
-1.00851
-1.99991
-2.23402
-0.470774
-2.31088
1.30523
-1.19492
2.40933
0.545103
2.26832
2.01618
0.951408
2.45901
-0.863356
1.63834
-2.23758
-0.0340502
-2.45845
-1.7055
-1.40714
-2.51762
0.378951
-2.04688
1.98116
-0.523606
2.57351
1.28085
1.8481
2.44546
0.172653
2.37136
-1.5971
1.08919
-2.55681
-0.752946
-2.21738
2.12614
2.40863
0.746297
1.4529
-1.02302
-0.24587
-2.26927
-1.81249
-2.34671
-2.44325
-1.2107
-1.81813
0.556394
-0.261955
2.04253
1.4235
2.47754
2.37225
1.63234
2.09892
-0.0608211
0.74574
-1.72838
-0.990869
-2.50693
-2.21741
-1.99111
-2.30247
-0.444124
-1.20003
1.33568
0.526256
2.42679
1.98987
2.26258
2.43606
0.924474
1.62933
-0.898555
-0.0241706
-2.26445
-1.68048
-2.46571
-2.4885
-1.39433
-2.02658
0.40242
-0.520402
2.0024
1.2674
2.58375
2.42384
1.84697
2.35281
0.166829
1.08138
-1.59958
-0.74985
-2.5525
-2.20975
2.42057
2.12533
1.46927
0.730777
-0.234422
-1.04671
-1.81134
-2.28877
-2.45183
-2.35051
-1.83133
-1.19508
-0.273517
0.584423
1.41796
2.06844
2.37407
2.48721
2.10698
1.62028
0.757647
-0.0878307
-0.97812
-1.75471
-2.20733
-2.51679
-2.29892
-1.97761
-1.20604
-0.413419
0.510446
1.3677
1.96841
2.44339
2.41705
2.25536
1.62177
0.897609
-0.0149818
-0.931245
-1.65656
-2.28773
-2.45923
-2.47126
-2.00477
-1.38425
-0.515907
0.418395
1.25293
2.01395
2.39788
2.58649
2.32795
1.84428
1.06852
0.166354
-0.747176
-1.59219
-2.19654
-2.53832
2.43517
1.48983
2.12397
-0.219891
0.711878
-1.8101
-1.0744
-2.46303
-2.31046
-1.84758
-2.35365
-0.285842
-1.17692
1.41523
0.614573
2.38106
2.09406
2.11948
2.49394
0.770184
1.60426
-0.969524
-0.117403
-2.20435
-1.78059
-2.3017
-2.52357
-1.21419
-1.96044
0.497784
-0.380662
1.95357
1.39936
2.40461
2.4585
1.61756
2.24806
-0.00663306
0.873944
-1.63613
-0.957884
-2.43347
-2.30496
-1.98451
-2.47455
-0.511011
-1.37812
1.23903
0.424991
2.37074
2.01448
2.29978
2.58143
1.05198
1.84039
-0.745594
0.171316
-2.17971
-1.57592
-2.51628
1.51531
2.45203
-0.200595
2.12127
-1.80699
0.689318
-2.47612
-1.10547
-1.86788
-2.33309
-0.301265
-2.35509
1.41287
-1.15617
2.392
0.645831
2.13702
2.11792
0.78532
2.49661
-0.963097
1.5841
-2.20771
-0.148973
-2.31161
-1.80561
-1.22613
-2.52787
0.487113
-1.94152
1.94573
-0.348533
2.40054
1.42847
1.61881
2.47159
0.00176486
2.24214
-1.62051
0.856286
-2.41428
-0.975618
-1.9691
-2.31444
-0.507452
-2.47535
1.22659
-1.37652
2.34555
0.421749
2.27203
2.00431
1.03417
2.56947
-0.745127
1.83577
-2.1615
0.180815
-2.48951
-1.55322
1.54536
-0.175532
2.46997
-1.80019
2.11614
-2.48975
0.663072
-1.89246
-1.13875
-0.32181
-2.35507
1.40793
-2.35373
2.40462
-1.13279
2.15928
0.677308
0.8048
2.13902
-0.956072
2.49494
-2.21522
1.56039
-2.32827
-0.18156
-1.24329
-1.82937
0.476375
-2.53067
1.94363
-1.92319
2.40524
-0.319901
1.62721
1.45284
0.011823
2.48209
-1.60952
2.23868
-2.4034
0.846497
-1.96134
-0.982833
-0.507407
-2.31537
1.21557
-2.47351
2.32467
-1.37918
2.24834
0.409783
1.01815
1.98527
-0.744976
2.55226
-2.14381
1.83071
-2.46155
0.193026
-1.52755
-0.14485
1.57843
-1.78838
2.48707
-2.50208
2.10761
-1.92039
0.633623
-0.348464
-1.17261
1.3978
-2.3746
2.41602
-2.34863
2.18477
-1.10693
0.829471
0.708304
-0.945674
2.15696
-2.22378
2.4895
-2.35001
1.53459
-1.2662
-0.213674
0.463258
-1.8513
1.94474
-2.53293
2.41752
-1.90774
1.6434
-0.297405
0.0252981
1.47055
-1.6017
2.48926
-2.40086
2.23795
-1.96282
0.845144
-0.512852
-0.979338
1.20509
-2.30793
2.30928
-2.46891
2.23165
-1.38494
1.00702
0.391492
-0.743655
1.96029
-2.12768
2.53183
-2.43559
1.82512
-1.50262
0.205541
-0.110083
-1.77127
1.61202
-2.51131
2.50127
-1.94976
2.09516
-0.380671
0.60215
1.38104
-1.20514
2.4235
-2.39017
2.21113
-2.33937
0.858904
-1.07912
-0.930014
0.738226
-2.23018
2.172
-2.37406
2.48168
-1.29422
1.50883
0.446022
-0.243376
1.94603
-1.8706
2.43476
-2.53527
1.66659
-1.89685
0.0434241
-0.283053
-1.59495
1.48001
-2.40513
2.49221
-1.97346
2.23934
-0.524995
0.851422
1.1939
-0.966237
2.29937
-2.29304
2.22351
-2.4614
1.00314
-1.39197
-0.739434
0.370046
-2.11332
1.93269
-2.41394
2.51013
-1.4817
1.81858
0.215823
-1.74986
-0.0738592
-2.51635
1.64338
-1.97817
2.51118
-0.416348
2.07927
1.35799
0.570363
2.42539
-1.2346
2.23584
-2.40112
0.891433
-2.32647
-0.90865
-1.05034
-2.23193
0.766593
-2.39738
2.18486
-1.32553
2.47339
0.42411
1.48551
1.94482
-0.268581
2.45373
-1.88614
1.69478
-2.53775
0.0663678
-1.89139
-1.58722
-0.277931
-2.4137
1.48025
-1.99174
2.49001
-0.543868
2.24159
1.18092
0.863459
2.29395
-0.945657
2.22399
-2.27218
1.00771
-2.45087
-0.730971
-1.39825
-2.10041
0.348755
-2.39781
1.90562
-1.46715
2.48877
0.221741
1.81056
-1.72634
-2.51734
-0.0391011
-2.0036
1.67049
-0.452579
2.51666
1.3307
2.06138
2.42174
0.540039
2.25707
-1.26017
0.924743
-2.40807
-0.882657
-2.31149
-2.22807
-1.022
-2.41747
0.793099
-1.3577
2.19652
0.39826
2.46654
1.93957
1.46685
2.47143
-0.287424
1.72522
-1.89673
0.093161
-2.53984
-1.57724
-1.89129
-2.42388
-0.282109
-2.01513
1.47107
-0.568306
2.48194
1.16567
2.2431
2.29164
0.8788
2.23198
-0.920312
1.0205
-2.24721
-0.717761
-2.43746
-2.08846
-1.40205
-2.38756
0.330436
-1.46017
1.88166
0.221981
2.46895
1.80068
-2.51574
-1.70346
-2.02524
-0.00802666
-0.486625
1.69296
1.30232
2.51911
2.41428
2.04353
2.27434
0.512295
0.956742
-1.28252
-0.85422
-2.41303
-2.21933
-2.29664
-2.43313
-0.995439
-1.38848
0.817659
0.370176
2.20788
1.93023
2.46245
2.48597
1.45424
1.75526
-0.298604
0.122079
-1.90125
-1.5648
-2.54051
-2.43364
-1.8955
-2.04087
-0.294617
-0.596381
1.45312
1.14841
2.46784
2.29121
2.24243
2.24563
0.894877
1.04009
-0.893089
-0.700268
-2.22029
-2.07731
-2.42171
-2.383
-1.40225
-1.46095
0.317083
0.216133
1.86267
1.78894
2.45167
-2.51397
-2.04392
-1.68343
-0.516971
0.0188327
1.2759
1.71231
2.40592
2.52105
2.2888
2.02741
0.986312
0.486819
-0.825777
-1.30384
-2.20779
-2.41889
-2.44486
-2.28405
-1.41665
-0.971416
0.34183
0.840452
1.91803
2.21935
2.49694
2.46139
1.78322
1.44789
0.151258
-0.301639
-1.55061
-1.89878
-2.44198
-2.53847
-2.06684
-1.90237
-0.62601
-0.313586
1.13001
1.42793
2.29191
2.44824
2.26307
2.23871
1.06453
0.909456
-0.679776
-0.866788
-2.0673
-2.19371
-2.3838
-2.40469
-1.469
-1.39859
0.204614
0.309805
1.77586
1.84983
2.43774
-2.06184
-2.5144
-0.544025
-1.66701
1.25326
0.0431242
2.39965
1.73168
2.30276
2.52517
1.01378
2.01356
-0.79906
0.461605
-2.19612
-1.32738
-2.45459
-2.42828
-1.44237
-2.27473
0.31459
-0.949696
1.90479
0.861782
2.50541
2.23043
1.80876
2.4623
0.179432
1.44691
-1.5358
-0.296789
-2.449
-1.88883
-2.09194
-2.53247
-0.655589
-1.90998
1.11154
-0.336607
2.29354
1.39785
2.28292
2.42459
1.09188
2.23183
-0.65787
0.920932
-2.05907
-0.843891
-2.38973
-2.16984
-1.48354
-2.38792
0.188394
-1.39154
1.76234
0.308944
2.42802
1.8439
-2.08186
-0.570084
-2.51841
1.23419
-1.65289
2.39736
0.0683515
2.31892
1.75479
1.04084
2.53314
-0.774464
2.00065
-2.18652
0.433367
-2.46498
-1.35625
-1.46726
-2.44234
0.288648
-2.26784
1.89213
-0.92906
2.51323
0.881653
1.8329
2.23963
0.206442
2.46306
-1.5213
1.44968
-2.45552
-0.284782
-2.11625
-1.8714
-0.684505
-2.5218
1.09373
-1.91662
2.2963
-0.361071
2.30449
1.36581
1.12082
2.39913
-0.635839
2.22251
-2.05337
0.928361
-2.40068
-0.826452
-1.50378
-2.15101
0.168559
-2.37319
1.74947
-1.382
2.42342
0.314409
1.84538
-0.59858
-2.10634
1.21633
-2.52555
2.39903
-1.63775
2.33929
0.0988939
1.06995
1.78454
-0.750822
2.54473
-2.17984
1.98568
-2.47839
0.398563
-1.49374
-1.392
0.262901
-2.45985
1.88071
-2.26079
2.52227
-0.907894
1.85759
0.899346
0.233275
2.2446
-1.5073
2.46132
-2.46247
1.45463
-2.14072
-0.26663
-0.713228
-1.84727
1.07662
-2.50666
2.30035
-1.92128
2.32769
-0.384489
1.15096
1.33505
-0.614247
2.37469
-2.05055
2.21219
-2.41655
0.931395
-1.52914
-0.816137
0.145984
-2.13931
1.73823
-2.36229
2.42474
-1.37098
1.85469
0.326019
-0.632947
1.1958
-2.13611
2.40254
-2.53339
2.36434
-1.61716
1.10342
0.1386
-0.725727
1.82185
-2.17526
2.55751
-2.49599
1.96477
-1.52418
0.354825
0.23527
-1.43365
1.86992
-2.47722
2.53363
-2.25011
1.88485
-0.885227
0.261748
0.913248
-1.49304
2.2429
-2.47033
2.45543
-2.16662
1.46085
-0.743051
-0.243596
1.05937
-1.81827
2.30547
-2.48848
2.35277
-1.92379
1.18269
-0.404727
-0.59271
1.30894
-2.05025
2.35445
-2.437
2.20264
-1.55929
0.93007
0.1211
-0.814252
1.72907
-2.1365
2.43243
-2.35663
1.87217
-1.35922
0.343687
1.16846
-0.675392
2.40415
-2.17006
2.39269
-2.53806
1.14261
-1.5869
-0.696342
0.189364
-2.17035
1.86506
-2.51721
2.56746
-1.55995
1.9346
0.203443
0.302173
1.85804
-1.47764
2.54712
-2.48976
1.91603
-2.2331
0.293912
-0.861593
-1.47698
0.921137
-2.47881
2.23307
-2.19489
2.44531
-0.775642
1.46811
1.04042
-0.217466
2.31083
-1.7875
2.37982
-2.46996
1.21686
-1.92477
-0.569976
-0.419986
-2.05131
1.29074
-2.46129
2.34152
-1.59394
2.19559
0.0937494
0.924449
1.72171
-0.821801
2.44637
-2.14384
1.8979
-2.35701
0.367529
-1.34691
1.13114
2.39959
-0.72606
2.4214
-2.20522
1.18735
-2.53537
-0.660283
-1.54433
-2.1618
0.250318
-2.53974
1.91024
-1.60092
2.57033
0.165711
1.89377
1.84275
0.243391
2.5613
-1.51879
1.95135
-2.4935
0.331317
-2.20931
-1.45721
-0.839223
-2.48672
0.921102
-2.22574
2.21557
-0.812423
2.43264
1.0179
1.47656
2.31498
-0.19095
2.40847
-1.75927
1.25436
-2.45462
-0.544341
-1.92524
-2.05188
-0.428632
-2.48811
1.28337
-1.63281
2.33847
0.063294
2.19224
1.71505
0.914346
2.46559
-0.839573
1.93152
-2.16183
0.397822
-2.36338
-1.33363
2.38529
1.08264
2.44669
-0.782932
1.2359
-2.23762
-0.616347
-2.52212
-2.14634
-1.48944
-2.56019
0.317868
-1.64529
1.95231
0.121527
2.56312
1.82186
1.84374
2.57383
0.18349
1.98964
-1.55213
0.374505
-2.48694
-1.43197
-2.18119
-2.4923
-0.82143
-2.2584
0.912698
-0.854041
2.19323
0.990073
2.42042
2.31605
1.48606
2.43775
-0.167745
1.29559
-1.73858
-0.51412
-2.44605
-2.04972
-1.92599
-2.51566
-0.429045
-1.67533
1.28926
0.028861
2.3469
1.70724
2.19281
2.48824
0.899149
1.97205
-0.868065
0.434776
-2.19016
-1.31831
-2.37465
2.35939
2.46506
1.0242
1.28543
-0.842341
-0.564939
-2.26351
-2.12171
-2.49722
-2.57491
-1.4251
-1.69011
0.386521
0.0717313
1.98666
1.79396
2.54538
2.58208
1.78877
2.02867
0.128427
0.422818
-1.5745
-1.40025
-2.47194
-2.4936
-2.15357
-2.29123
-0.811262
-0.900133
0.897717
0.955878
2.17094
2.31223
2.412
2.46608
1.4957
1.34022
-0.152109
-0.478109
-1.7302
-2.04263
-2.447
-2.54183
-1.92696
-1.72055
-0.419503
-0.0103665
1.30997
1.69601
2.36703
2.51167
2.1963
2.01772
0.877777
0.478316
-0.907283
-1.29947
-2.22749
-2.38882
2.47415
2.32228
1.33268
0.959084
-0.507965
-0.899937
-2.08718
-2.2804
-2.58104
-2.46212
-1.73199
-1.35646
0.018355
0.450299
1.75873
2.01045
2.5838
2.51961
2.06565
1.73505
0.474455
0.0835815
-1.36199
-1.58533
-2.48895
-2.45303
-2.32207
-2.13197
-0.949298
-0.81009
0.915241
0.880211
2.30206
2.15446
2.49157
2.41017
1.38708
1.5038
-0.435993
-0.148158
-2.02887
-1.73762
-2.56437
-2.45845
-1.76705
-1.92688
-0.0547549
-0.398305
1.67917
1.34578
2.53275
2.39735
2.06604
2.20052
0.527866
0.84897
-1.27552
-0.956507
-2.40304
-2.27134
2.47336
1.37481
2.2765
-0.448336
0.891866
-2.04384
-0.951816
-2.57718
-2.28775
-1.768
-2.42064
-0.0359727
-1.28986
1.71698
0.504198
2.57759
2.02341
2.09785
2.49068
0.526891
1.68929
-1.31814
0.0526865
-2.4774
-1.58642
-2.34871
-2.43578
-0.999326
-2.12071
0.869121
-0.816875
2.28483
0.865627
2.51239
2.14887
1.43434
2.41613
-0.388475
1.50802
-2.00753
-0.159062
-2.58126
-1.76212
-1.81297
-2.47907
-0.10389
-1.9233
1.65506
-0.364256
2.54839
1.39536
2.11399
2.43466
0.58213
2.20242
-1.24519
0.811787
-2.41403
-1.01397
-2.31822
1.41002
2.46392
-0.389345
2.22615
-1.99425
0.827401
-2.56367
-0.995317
-1.79635
-2.28707
-0.0886393
-2.37802
1.6704
-1.23142
2.56316
0.545093
2.12315
2.02757
0.577432
2.46439
-1.27052
1.65704
-2.45888
0.0373286
-2.36929
-1.58093
-1.04768
-2.42492
0.819368
-2.12137
2.26077
-0.828312
2.52709
0.859285
1.47977
2.15715
-0.337191
2.42897
-1.97871
1.50553
-2.59105
-0.186418
-1.85619
-1.80234
-0.156472
-2.50529
1.62308
-1.91317
2.55609
-0.317267
2.15837
1.45555
0.639082
2.47443
-1.20791
2.19879
-2.41865
0.766123
-2.36394
-1.07674
1.43778
-0.333989
2.44854
-1.94185
2.17595
-2.54246
0.769896
-1.81665
-1.02934
-0.137557
-2.28134
1.62119
-2.3398
2.54131
-1.1859
2.14045
0.571996
0.623711
2.02626
-1.22136
2.44587
-2.43419
1.64155
-2.38275
0.0368141
-1.092
-1.57235
0.768395
-2.42307
2.23099
-2.13256
2.53491
-0.839746
1.52122
0.864893
-0.284497
2.17906
-1.94361
2.44542
-2.59307
1.4934
-1.89465
-0.229857
-0.210383
-1.85427
1.58395
-2.53205
2.55446
-1.89383
2.19633
-0.258901
0.696138
1.52152
-1.16421
2.51154
-2.41456
2.18709
-2.40418
0.713173
-1.14086
-0.284481
1.45879
-1.89029
2.43072
-2.51658
2.13049
-1.82983
0.722356
-0.1815
-1.05425
1.57159
-2.27415
2.51378
-2.31067
2.14984
-1.15609
0.664153
0.585677
-1.17287
2.0228
-2.40486
2.43816
-2.38896
1.64307
-1.13048
0.0483767
0.718658
-1.56389
2.19729
-2.43038
2.53596
-2.15037
1.55698
-0.846486
-0.233013
0.883546
-1.90428
2.21107
-2.58765
2.4605
-1.92676
1.46946
-0.263001
-0.286754
1.53969
-1.91197
2.54359
-2.55402
2.22591
-1.86406
0.750467
-0.19263
-1.11578
1.58751
-2.4008
2.54135
-2.4354
2.16622
-1.20194
0.655557
-0.242121
-1.84288
1.47456
-2.48948
2.41404
-1.83779
2.0934
-0.220105
0.686457
1.52369
-1.07129
2.48286
-2.26875
2.1525
-2.2936
0.698244
-1.14271