# vtk DataFile Version 3.1
vtk output
ASCII
DATASET POLYDATA
POINTS 4260 FLOAT
2.83277e-16          -1    -3.14159
-0.104528 -0.994522  -3.14159
 0.104528 -0.994522  -3.14159
-0.207912 -0.978148  -3.14159
 0.207912 -0.978148  -3.14159
-0.309017 -0.951057  -3.14159
 0.309017 -0.951057  -3.14159
-0.406737 -0.913545  -3.14159
 0.406737 -0.913545  -3.14159
     -0.5 -0.866025  -3.14159
      0.5 -0.866025  -3.14159
-0.587785 -0.809017  -3.14159
 0.587785 -0.809017  -3.14159
-0.669131 -0.743145  -3.14159
 0.669131 -0.743145  -3.14159
-0.743145 -0.669131  -3.14159
 0.743145 -0.669131  -3.14159
-0.809017 -0.587785  -3.14159
 0.809017 -0.587785  -3.14159
-0.866025      -0.5  -3.14159
0.866025     -0.5 -3.14159
-0.913545 -0.406737  -3.14159
 0.913545 -0.406737  -3.14159
-0.951057 -0.309017  -3.14159
 0.951057 -0.309017  -3.14159
-0.978148 -0.207912  -3.14159
 0.978148 -0.207912  -3.14159
-0.994522 -0.104528  -3.14159
 0.994522 -0.104528  -3.14159
          -1 -5.66554e-16     -3.14159
       1        0 -3.14159
-0.994522  0.104528  -3.14159
0.994522 0.104528 -3.14159
-0.978148  0.207912  -3.14159
0.978148 0.207912 -3.14159
-0.951057  0.309017  -3.14159
0.951057 0.309017 -3.14159
-0.913545  0.406737  -3.14159
0.913545 0.406737 -3.14159
-0.866025       0.5  -3.14159
0.866025      0.5 -3.14159
-0.809017  0.587785  -3.14159
0.809017 0.587785 -3.14159
-0.743145  0.669131  -3.14159
0.743145 0.669131 -3.14159
-0.669131  0.743145  -3.14159
0.669131 0.743145 -3.14159
-0.587785  0.809017  -3.14159
0.587785 0.809017 -3.14159
    -0.5 0.866025 -3.14159
     0.5 0.866025 -3.14159
-0.406737  0.913545  -3.14159
0.406737 0.913545 -3.14159
-0.309017  0.951057  -3.14159
0.309017 0.951057 -3.14159
-0.207912  0.978148  -3.14159
0.207912 0.978148 -3.14159
-0.104528  0.994522  -3.14159
0.104528 0.994522 -3.14159
-1.83697e-16            1     -3.14159
-0.052336  -0.99863   -3.0509
0.052336 -0.99863  -3.0509
-0.156434 -0.987688   -3.0509
 0.156434 -0.987688   -3.0509
-0.258819 -0.965926   -3.0509
 0.258819 -0.965926   -3.0509
-0.358368  -0.93358   -3.0509
0.358368 -0.93358  -3.0509
 -0.45399 -0.891007   -3.0509
  0.45399 -0.891007   -3.0509
-0.544639 -0.838671   -3.0509
 0.544639 -0.838671   -3.0509
 -0.62932 -0.777146   -3.0509
  0.62932 -0.777146   -3.0509
-0.707107 -0.707107   -3.0509
 0.707107 -0.707107   -3.0509
-0.777146  -0.62932   -3.0509
0.777146 -0.62932  -3.0509
-0.838671 -0.544639   -3.0509
 0.838671 -0.544639   -3.0509
-0.891007  -0.45399   -3.0509
0.891007 -0.45399  -3.0509
 -0.93358 -0.358368   -3.0509
  0.93358 -0.358368   -3.0509
-0.965926 -0.258819   -3.0509
 0.965926 -0.258819   -3.0509
-0.987688 -0.156434   -3.0509
 0.987688 -0.156434   -3.0509
 -0.99863 -0.052336   -3.0509
  0.99863 -0.052336   -3.0509
-0.99863 0.052336  -3.0509
 0.99863 0.052336  -3.0509
-0.987688  0.156434   -3.0509
0.987688 0.156434  -3.0509
-0.965926  0.258819   -3.0509
0.965926 0.258819  -3.0509
-0.93358 0.358368  -3.0509
 0.93358 0.358368  -3.0509
-0.891007   0.45399   -3.0509
0.891007  0.45399  -3.0509
-0.838671  0.544639   -3.0509
0.838671 0.544639  -3.0509
-0.777146   0.62932   -3.0509
0.777146  0.62932  -3.0509
-0.707107  0.707107   -3.0509
0.707107 0.707107  -3.0509
-0.62932 0.777146  -3.0509
 0.62932 0.777146  -3.0509
-0.544639  0.838671   -3.0509
0.544639 0.838671  -3.0509
-0.45399 0.891007  -3.0509
 0.45399 0.891007  -3.0509
-0.358368   0.93358   -3.0509
0.358368  0.93358  -3.0509
-0.258819  0.965926   -3.0509
0.258819 0.965926  -3.0509
-0.156434  0.987688   -3.0509
0.156434 0.987688  -3.0509
-0.052336   0.99863   -3.0509
0.052336  0.99863  -3.0509
6.12323e-17          -1    -2.96021
-0.104528 -0.994522  -2.96021
 0.104528 -0.994522  -2.96021
-0.207912 -0.978148  -2.96021
 0.207912 -0.978148  -2.96021
-0.309017 -0.951057  -2.96021
 0.309017 -0.951057  -2.96021
-0.406737 -0.913545  -2.96021
 0.406737 -0.913545  -2.96021
     -0.5 -0.866025  -2.96021
      0.5 -0.866025  -2.96021
-0.587785 -0.809017  -2.96021
 0.587785 -0.809017  -2.96021
-0.669131 -0.743145  -2.96021
 0.669131 -0.743145  -2.96021
-0.743145 -0.669131  -2.96021
 0.743145 -0.669131  -2.96021
-0.809017 -0.587785  -2.96021
 0.809017 -0.587785  -2.96021
-0.866025      -0.5  -2.96021
0.866025     -0.5 -2.96021
-0.913545 -0.406737  -2.96021
 0.913545 -0.406737  -2.96021
-0.951057 -0.309017  -2.96021
 0.951057 -0.309017  -2.96021
-0.978148 -0.207912  -2.96021
 0.978148 -0.207912  -2.96021
-0.994522 -0.104528  -2.96021
 0.994522 -0.104528  -2.96021
          -1 -5.66554e-16     -2.96021
          1 2.77556e-17    -2.96021
-0.994522  0.104528  -2.96021
0.994522 0.104528 -2.96021
-0.978148  0.207912  -2.96021
0.978148 0.207912 -2.96021
-0.951057  0.309017  -2.96021
0.951057 0.309017 -2.96021
-0.913545  0.406737  -2.96021
0.913545 0.406737 -2.96021
-0.866025       0.5  -2.96021
0.866025      0.5 -2.96021
-0.809017  0.587785  -2.96021
0.809017 0.587785 -2.96021
-0.743145  0.669131  -2.96021
0.743145 0.669131 -2.96021
-0.669131  0.743145  -2.96021
0.669131 0.743145 -2.96021
-0.587785  0.809017  -2.96021
0.587785 0.809017 -2.96021
    -0.5 0.866025 -2.96021
     0.5 0.866025 -2.96021
-0.406737  0.913545  -2.96021
0.406737 0.913545 -2.96021
-0.309017  0.951057  -2.96021
0.309017 0.951057 -2.96021
-0.207912  0.978148  -2.96021
0.207912 0.978148 -2.96021
-0.104528  0.994522  -2.96021
0.104528 0.994522 -2.96021
-1.83697e-16            1     -2.96021
-0.052336  -0.99863  -2.86952
0.052336 -0.99863 -2.86952
-0.156434 -0.987688  -2.86952
 0.156434 -0.987688  -2.86952
-0.258819 -0.965926  -2.86952
 0.258819 -0.965926  -2.86952
-0.358368  -0.93358  -2.86952
0.358368 -0.93358 -2.86952
 -0.45399 -0.891007  -2.86952
  0.45399 -0.891007  -2.86952
-0.544639 -0.838671  -2.86952
 0.544639 -0.838671  -2.86952
 -0.62932 -0.777146  -2.86952
  0.62932 -0.777146  -2.86952
-0.707107 -0.707107  -2.86952
 0.707107 -0.707107  -2.86952
-0.777146  -0.62932  -2.86952
0.777146 -0.62932 -2.86952
-0.838671 -0.544639  -2.86952
 0.838671 -0.544639  -2.86952
-0.891007  -0.45399  -2.86952
0.891007 -0.45399 -2.86952
 -0.93358 -0.358368  -2.86952
  0.93358 -0.358368  -2.86952
-0.965926 -0.258819  -2.86952
 0.965926 -0.258819  -2.86952
-0.987688 -0.156434  -2.86952
 0.987688 -0.156434  -2.86952
 -0.99863 -0.052336  -2.86952
  0.99863 -0.052336  -2.86952
-0.99863 0.052336 -2.86952
 0.99863 0.052336 -2.86952
-0.987688  0.156434  -2.86952
0.987688 0.156434 -2.86952
-0.965926  0.258819  -2.86952
0.965926 0.258819 -2.86952
-0.93358 0.358368 -2.86952
 0.93358 0.358368 -2.86952
-0.891007   0.45399  -2.86952
0.891007  0.45399 -2.86952
-0.838671  0.544639  -2.86952
0.838671 0.544639 -2.86952
-0.777146   0.62932  -2.86952
0.777146  0.62932 -2.86952
-0.707107  0.707107  -2.86952
0.707107 0.707107 -2.86952
-0.62932 0.777146 -2.86952
 0.62932 0.777146 -2.86952
-0.544639  0.838671  -2.86952
0.544639 0.838671 -2.86952
-0.45399 0.891007 -2.86952
 0.45399 0.891007 -2.86952
-0.358368   0.93358  -2.86952
0.358368  0.93358 -2.86952
-0.258819  0.965926  -2.86952
0.258819 0.965926 -2.86952
-0.156434  0.987688  -2.86952
0.156434 0.987688 -2.86952
-0.052336   0.99863  -2.86952
0.052336  0.99863 -2.86952
6.12323e-17          -1    -2.77883
-0.104528 -0.994522  -2.77883
 0.104528 -0.994522  -2.77883
-0.207912 -0.978148  -2.77883
 0.207912 -0.978148  -2.77883
-0.309017 -0.951057  -2.77883
 0.309017 -0.951057  -2.77883
-0.406737 -0.913545  -2.77883
 0.406737 -0.913545  -2.77883
     -0.5 -0.866025  -2.77883
      0.5 -0.866025  -2.77883
-0.587785 -0.809017  -2.77883
 0.587785 -0.809017  -2.77883
-0.669131 -0.743145  -2.77883
 0.669131 -0.743145  -2.77883
-0.743145 -0.669131  -2.77883
 0.743145 -0.669131  -2.77883
-0.809017 -0.587785  -2.77883
 0.809017 -0.587785  -2.77883
-0.866025      -0.5  -2.77883
0.866025     -0.5 -2.77883
-0.913545 -0.406737  -2.77883
 0.913545 -0.406737  -2.77883
-0.951057 -0.309017  -2.77883
 0.951057 -0.309017  -2.77883
-0.978148 -0.207912  -2.77883
 0.978148 -0.207912  -2.77883
-0.994522 -0.104528  -2.77883
 0.994522 -0.104528  -2.77883
          -1 -1.22465e-16     -2.77883
          1 5.55112e-17    -2.77883
-0.994522  0.104528  -2.77883
0.994522 0.104528 -2.77883
-0.978148  0.207912  -2.77883
0.978148 0.207912 -2.77883
-0.951057  0.309017  -2.77883
0.951057 0.309017 -2.77883
-0.913545  0.406737  -2.77883
0.913545 0.406737 -2.77883
-0.866025       0.5  -2.77883
0.866025      0.5 -2.77883
-0.809017  0.587785  -2.77883
0.809017 0.587785 -2.77883
-0.743145  0.669131  -2.77883
0.743145 0.669131 -2.77883
-0.669131  0.743145  -2.77883
0.669131 0.743145 -2.77883
-0.587785  0.809017  -2.77883
0.587785 0.809017 -2.77883
    -0.5 0.866025 -2.77883
     0.5 0.866025 -2.77883
-0.406737  0.913545  -2.77883
0.406737 0.913545 -2.77883
-0.309017  0.951057  -2.77883
0.309017 0.951057 -2.77883
-0.207912  0.978148  -2.77883
0.207912 0.978148 -2.77883
-0.104528  0.994522  -2.77883
0.104528 0.994522 -2.77883
-1.83697e-16            1     -2.77883
-0.052336  -0.99863  -2.68814
0.052336 -0.99863 -2.68814
-0.156434 -0.987688  -2.68814
 0.156434 -0.987688  -2.68814
-0.258819 -0.965926  -2.68814
 0.258819 -0.965926  -2.68814
-0.358368  -0.93358  -2.68814
0.358368 -0.93358 -2.68814
 -0.45399 -0.891007  -2.68814
  0.45399 -0.891007  -2.68814
-0.544639 -0.838671  -2.68814
 0.544639 -0.838671  -2.68814
 -0.62932 -0.777146  -2.68814
  0.62932 -0.777146  -2.68814
-0.707107 -0.707107  -2.68814
 0.707107 -0.707107  -2.68814
-0.777146  -0.62932  -2.68814
0.777146 -0.62932 -2.68814
-0.838671 -0.544639  -2.68814
 0.838671 -0.544639  -2.68814
-0.891007  -0.45399  -2.68814
0.891007 -0.45399 -2.68814
 -0.93358 -0.358368  -2.68814
  0.93358 -0.358368  -2.68814
-0.965926 -0.258819  -2.68814
 0.965926 -0.258819  -2.68814
-0.987688 -0.156434  -2.68814
 0.987688 -0.156434  -2.68814
 -0.99863 -0.052336  -2.68814
  0.99863 -0.052336  -2.68814
-0.99863 0.052336 -2.68814
 0.99863 0.052336 -2.68814
-0.987688  0.156434  -2.68814
0.987688 0.156434 -2.68814
-0.965926  0.258819  -2.68814
0.965926 0.258819 -2.68814
-0.93358 0.358368 -2.68814
 0.93358 0.358368 -2.68814
[...]
POINT_DATA 4260
SCALARS Field double
LOOKUP_TABLE default
2.16773
0.742687
2.47974
-1.04258
1.51307
-2.30047
-0.209383
-2.38266
-1.82558
-1.22779
-2.51133
0.542001
-1.8876
2.02267
-0.296882
2.47744
1.4376
1.64826
2.45112
-0.0308085
2.20012
-1.67275
0.806797
-2.46071
-0.986656
-1.9858
-2.28109
-0.472052
-2.41717
1.2723
-1.29717
2.35324
0.482596
2.2358
2.00321
0.952174
2.5123
-0.831975
1.72788
-2.17524
0.048326
-2.41211
-1.63518
-1.41275
-2.47947
0.333767
-2.05676
1.90274
-0.556842
2.49203
1.22744
1.81861
2.37371
0.197547
2.3208
-1.53538
1.07319
-2.46857
-0.735208
-2.14977
0.767362
2.16567
-1.03284
2.47244
-2.30625
1.50846
-2.37935
-0.237004
-1.24438
-1.8397
0.520017
-2.4983
2.02935
-1.88022
2.48242
-0.275377
1.65472
1.46912
-0.00420264
2.45044
-1.66771
2.19116
-2.47536
0.801105
-1.99183
-1.01222
-0.49525
-2.29021
1.24808
-2.39913
2.36185
-1.28862
2.24534
0.498924
0.963798
2.02362
-0.801062
2.49805
-2.1673
1.7076
-2.42509
0.0371411
-1.41769
-1.65959
0.311549
-2.48295
1.87933
-2.03234
2.50087
-0.544306
1.82726
1.24463
0.20691
2.39359
-1.5076
2.30766
-2.46339
1.05801
-2.16345
-0.73728
0.777002
-1.03107
2.18096
-2.29317
2.45503
-2.39002
1.48659
-1.26767
-0.248826
0.519175
-1.86437
2.0253
-2.50202
2.48396
-1.85616
1.68391
-0.263666
0.010185
1.48452
-1.67082
2.46747
-2.47364
2.17443
-2.0153
0.782455
-0.527991
-1.01648
1.24397
-2.30427
2.36088
-2.39307
2.25432
-1.26013
1.00205
0.507182
-0.778374
2.02845
-2.16423
2.50096
-2.41957
1.67791
-1.43955
0.0102023
0.27833
-1.66678
1.87266
-2.4965
2.49527
-2.02537
1.83
-0.516753
0.238526
1.25006
-1.49014
2.3959
-2.46235
2.31138
-2.15556
1.03464
-0.752347
-1.0087
0.780356
-2.29315
2.18248
-2.40818
2.456
-1.27263
1.45574
0.503516
-0.276489
2.01408
-1.8717
2.50671
-2.51498
1.70268
-1.84808
0.0211915
-0.234948
-1.65163
1.49042
-2.4848
2.46904
-2.04723
2.17647
-0.543674
0.757161
1.22425
-1.03309
2.35276
-2.2974
2.28532
-2.39325
1.03103
-1.24523
-0.758027
0.53434
-2.13804
2.02537
-2.42634
2.48976
-1.46952
1.66766
0.262253
-0.0239175
1.8498
-1.68823
2.4809
-2.49228
1.85212
-2.02856
0.257704
-0.506752
-1.47789
1.27088
-2.43979
2.38747
-2.15992
2.29902
-0.774292
1.02972
-0.996438
-2.29734
0.80637
-2.40568
2.17907
-1.29235
2.44446
0.477947
1.44498
2.01926
-0.310871
2.51405
-1.89248
1.71513
-2.50862
0.0550835
-1.84789
-1.64129
-0.221274
-2.49863
1.51425
-2.05711
2.46229
-0.573062
2.16443
1.19528
0.75174
2.36136
-1.05598
2.30067
-2.30334
1.05259
-2.37338
-0.71676
-1.23707
-2.12322
0.548534
-2.43817
2.04322
-1.47881
2.47375
0.232574
1.64667
1.81909
-0.0357806
2.48524
-1.715
1.86013
-2.50126
0.269749
-2.01321
-1.44573
-0.505835
-2.43043
1.27582
-2.17125
2.39654
-0.776969
2.27801
1.01033
-2.27709
-0.98613
-2.41347
0.82317
-1.31849
2.19874
0.469558
2.42889
2.00632
1.42348
2.50961
-0.322852
1.74432
-1.91777
0.0758571
-2.5141
-1.63416
-1.82741
-2.48703
-0.214803
-2.07494
1.52388
-0.606095
2.47461
1.18603
2.14522
2.35351
0.732968
2.30441
-1.05897
1.08927
-2.31604
-0.692113
-2.36664
-2.11654
-1.2083
-2.42975
0.557824
-1.50002
2.05105
0.197701
2.482
1.80959
1.62377
2.4771
-0.0563758
1.86155
-1.71838
0.301319
-2.51482
-1.42773
-2.01002
-2.42917
-0.484691
-2.16418
1.27387
-0.794336
2.39195
0.983009
2.27615
-2.26531
-2.42361
-0.951637
-1.32221
0.836831
0.447424
2.20836
1.98306
2.43663
2.5194
1.39911
1.7546
-0.344161
0.0865536
-1.9197
-1.60679
-2.52382
-2.48477
-1.81888
-2.09354
-0.18803
-0.613639
1.52676
1.1665
2.47351
2.33815
2.14572
2.32387
0.707139
1.10649
-1.07573
-0.680469
-2.30934
-2.09459
-2.36661
-2.43677
-1.19159
-1.52774
0.589723
0.184781
2.05631
1.7897
2.48216
2.46495
1.62614
1.88484
-0.0788123
0.320314
-1.73081
-1.41724
-2.50495
-2.40988
-2.01053
-2.17283
-0.474086
-0.820761
1.29398
0.97422
2.38176
2.26096
-2.41041
-2.25764
-1.3358
-0.928705
0.42057
0.871843
1.97908
2.21325
2.51244
2.43397
1.75282
1.39825
0.111891
-0.368443
-1.59577
-1.93175
-2.48886
-2.51142
-2.08855
-1.8157
-0.629027
-0.17371
1.14511
1.55004
2.34498
2.46592
2.32877
2.13273
1.11251
0.700382
-0.655029
-1.10048
-2.09178
-2.31705
-2.45461
-2.34709
-1.53697
-1.18079
0.159749
0.610564
1.76602
2.08463
2.47644
2.4791
1.89822
1.61874
0.334597
-0.0780476
-1.38655
-1.74667
-2.4053
-2.50461
-2.19086
-1.987
-0.83001
-0.466076
0.950407
1.3043
2.23896
2.39342
-2.41033
-1.35424
-2.23138
0.416421
-0.914278
1.9641
0.892389
2.49911
2.23815
1.76873
2.426
0.119794
1.38617
-1.59596
-0.37082
-2.47597
-1.94894
-2.097
-2.51116
-0.648541
-1.79167
1.14776
-0.165148
2.34235
1.56088
2.32875
2.47853
1.13756
2.11244
-0.646064
0.678889
-2.10002
-1.10732
-2.45638
-2.33336
-1.56168
-2.34196
0.127869
-1.15039
1.76414
0.624897
2.47784
2.1
1.90828
2.49597
0.371567
1.60447
-1.36777
-0.0901902
-2.4079
-1.74115
-2.19085
-2.50806
-0.855024
-1.97251
0.917807
-0.433674
2.23645
1.31139
2.39353
-1.35446
-2.42095
0.40011
-2.22337
1.94561
-0.884392
2.50927
0.903277
1.7735
2.24835
0.12058
2.43747
-1.57905
1.36715
-2.4803
-0.386866
-2.11547
-1.94664
-0.649456
-2.51761
1.13819
-1.78023
2.33568
-0.135532
2.35169
1.56604
1.1515
2.47808
-0.643189
2.11106
-2.08904
0.648695
-2.4728
-1.12976
-1.59438
-2.33191
0.11547
-2.34536
1.74963
-1.13498
2.47402
0.656783
1.94038
2.10529
0.397418
2.49555
-1.35421
1.60616
-2.39008
-0.111742
-2.20479
-1.74931
-0.888416
-2.48974
0.903418
-1.96138
2.21989
-0.410852
2.38769
1.341
-1.37331
0.374841
-2.41841
1.94851
-2.22833
2.51057
-0.872456
1.77693
0.931068
0.145271
2.24979
-1.57433
2.43361
-2.49333
1.36563
-2.11797
-0.412035
-0.667736
-1.95931
1.11927
-2.50452
2.34855
-1.77454
2.36308
-0.117639
1.16167
1.5922
-0.61716
2.47088
-2.08854
2.09524
-2.49395
0.636594
-1.60592
-1.1607
0.0904167
-2.34519
1.7285
-2.33052
2.49005
-1.12903
1.95919
0.671007
0.416717
2.12434
-1.32022
2.48138
-2.38492
1.5883
-2.2252
-0.117671
-0.902139
-1.76582
0.875049
-2.48383
2.19578
-1.92825
2.40168
-0.392794
1.35842
0.364243
-1.40559
1.93637
-2.43524
2.50759
-2.21754
1.80592
-0.869469
0.163318
0.944125
-1.57127
2.2692
-2.48474
2.42004
-2.13561
1.34712
-0.697007
-0.420538
1.11548
-1.98029
2.34466
-2.50434
2.36657
-1.74728
1.19307
-0.104623
-0.601147
1.60605
-2.09048
2.48336
-2.49073
2.07185
-1.62694
0.610612
0.0610923
-1.17171
1.72811
-2.36492
2.49203
-2.32942
1.96934
-1.10567
0.453785
0.673473
-1.30101
2.12323
-2.38693
2.47969
-2.22507
1.55739
-0.928078
-0.140842
0.840611
-1.76406
2.19163
-2.48477
2.40197
-1.90796
1.36863
-0.354775
0.334729
1.91313
-1.42243
2.52348
-2.46061
1.82467
-2.21945
0.180736
-0.845082
-1.54155
0.951027
-2.4845
2.27377
-2.15846
2.42298
-0.708394
1.31814
1.09407
-0.444815
2.32923
-1.98167
2.38637
-2.50926
1.20982
-1.73101
-0.590784
-0.0701211
-2.06932
1.61357
-2.49629
2.48228
-1.64992
2.06847
0.0556212
0.579354
1.71654
-1.19322
2.4869
-2.36185
1.99679
-2.33362
0.47372
-1.09664
-1.29225
0.692132
-2.37116
2.11011
-2.23819
2.4596
-0.959085
1.54254
0.828335
-0.172979
2.17573
-1.77663
2.39551
-2.46676
1.39752
-1.89587
-0.331699
1.90529
0.295863
2.52231
-1.45175
1.83586
-2.46197
0.220775
-2.22249
-1.51987
-0.829515
-2.48534
0.979386
-2.15751
2.27013
-0.732087
2.40949
1.06409
1.30639
2.3301
-0.476404
2.38895
-1.99477
1.21676
-2.49175
-0.561976
-1.7195
-2.06103
-0.0484203
-2.50644
1.64033
-1.6496
2.47416
0.040614
2.05335
1.70105
0.571863
2.50244
-1.21605
2.00908
-2.36676
0.482749
-2.3145
-1.2685
-1.09349
-2.37248
0.696522
-2.25938
2.11524
-0.96864
2.43168
0.806119
1.51432
2.15625
-0.185096
2.4104
-1.79667
1.4122
-2.46404
-0.318148
-1.86692
1.88238
2.51035
0.279294
1.86315
-1.48116
0.246047
-2.46778
-1.50345
-2.19753
-2.46283
-0.81575
-2.16605
0.995325
-0.759835
2.28447
1.05485
2.38696
2.31683
1.28067
2.38284
-0.486503
1.24117
-2.01169
-0.548863
-2.48521
-2.06145
-1.68777
-2.49776
-0.0349896
-1.66234
1.65192
0.0203471
2.48568
1.70761
2.03426
2.5063
0.556713
2.01434
-1.21215
0.508981
-2.37227
-1.26252
-2.3043
-2.38517
-1.06784
-2.26329
0.696132
-0.990892
2.10971
0.78053
2.42702
2.16118
1.48255
2.41529
-0.208812
1.42042
-1.79783
-0.287325
-2.47152
-1.85531
2.51626
1.85502
1.8728
0.25628
0.260389
-1.48087
-1.46959
-2.47055
-2.45388
-2.17913
-2.18
-0.779711
-0.765767
1.00343
1.03414
2.28319
2.29829
2.38334
2.3976
1.24978
1.25255
-0.506631
-0.543344
-2.00583
-2.04414
-2.48479
-2.5055
-1.67157
-1.68497
-0.00552026
0.0180337
1.65375
1.70078
2.48378
2.50467
2.03829
2.04084
0.540338
0.521797
-1.21562
-1.26566
-2.35318
-2.38171
-2.29744
-2.28376
-1.05217
-1.02079
0.720052
0.77727
2.10338
2.1576
2.41566
2.41808
1.47566
1.45078
-0.237751
-0.271136
-1.81442
-1.85469
-2.46362
2.50971
1.8731
1.85259
0.290221
0.234712
-1.45336
-1.48527
-2.45482
-2.44722
-2.17587
-2.16533
-0.785622
-0.758641
1.0072
1.02822
2.30132
2.27327
2.40186
2.36734
1.26045
1.24216
-0.515504
-0.529757
-2.03991
-2.01179
-2.5226
-2.4666
-1.69245
-1.66704
-0.00257486
0.00522833
1.68395
1.672
2.52259
2.47494
2.05604
2.03155
0.530318
0.547112
-1.24788
-1.22352
-2.39279
-2.34627
-2.31371
-2.26975
-1.03282
-1.04056
0.761299
0.736342
2.15075
2.12467
2.44582
2.40498
1.47181
1.46007
-0.261164
-0.246743
-1.83724
-1.84158
-2.47388
1.89278
2.49879
0.304183
1.84156
-1.44727
0.238389
-2.43939
-1.49276
-2.18835
-2.43714
-0.815146
-2.13506
0.998007
-0.749238
2.29061
1.03596
2.40147
2.2828
1.29269
2.34763
-0.49557
1.22563
-2.03844
-0.530152
-2.51932
-2.02524
-1.71676
-2.46622
-0.0360804
-1.64902
1.68116
0.00374193
2.52437
1.67418
2.06566
2.4857
0.562835
2.01853
-1.23897
0.539844
-2.40843
-1.21441
-2.32447
-2.34989
-1.06048
-2.2574
0.736893
-1.00748
2.16483
0.751357
2.46404
2.14023
1.49054
2.42039
-0.228685
1.43992
-1.83405
-0.271158
-2.49513
-1.85358
1.89942
0.310925
2.50899
-1.4222
1.82529
-2.43843
0.228844
-2.20939
-1.48299
-0.827797
-2.43925
0.971599
-2.12508
2.26975
-0.725725
2.41991
1.03479
1.31428
2.28097
-0.476432
2.35239
-2.01018
1.20667
-2.52469
-0.542639
-1.7478
-2.02164
-0.0543052
-2.47806
1.65831
-1.64981
2.51413
0.0186508
2.09433
1.66854
0.586044
2.48288
-1.23027
2.02324
-2.39842
0.520357
-2.34621
-1.2265
-1.09646
-2.3414
0.729094
-2.25629
2.16349
-0.987015
2.47628
0.790938
1.53264
2.15467
-0.205668
2.42595
-1.83627
1.43893
-2.49862
-0.306419
-1.88334
0.33745
1.89838
-1.40926
2.50417
-2.44197
1.82615
-2.2086
0.208092
-0.853787
-1.49318
0.93556
-2.4293
2.26372
-2.12864
2.42029
-0.719192
1.32759
1.05422
-0.434202
2.27672
-1.98822
2.34898
-2.52924
1.21067
-1.75457
-0.562368
-0.0867677
-2.03485
1.62327
-2.4742
2.51732
-1.6597
2.1063
0.0206272
0.604484
1.68427
-1.19497
2.47306
-2.39366
2.01032
-2.36936
0.511865
-1.11206
-1.25642
0.704278
-2.35554
2.15034
-2.24008
2.50553
-0.972984
1.56231
0.820769
-0.185975
2.19208
-1.81521
2.42471
-2.51471
1.42146
-1.92272
-0.326253
0.348991
-1.40189
1.91389
-2.42149
2.48855
-2.21535
1.80883
-0.881692
0.201403
0.920478
-1.51659
2.24078
-2.43876
2.40734
-2.11608
1.35473
-0.719348
-0.40716
1.06388
-1.96928
2.29756
-2.50629
2.34312
-1.76716
1.20262
-0.122591
-0.563916
1.6059
-2.05736
2.50127
-2.48444
2.10598
-1.64731
0.641673
0.020624
-1.16837
1.69096
-2.38749
2.48333
-2.36508
1.9852
-1.13791
0.480366
0.669898
-1.27719
2.15059
-2.38438
2.51522
-2.24008
1.58242
-0.938042
-0.144672
0.845911
-1.80319
2.21658
-2.53425
2.44068
-1.94207
1.39281
-0.36252
-1.3759
0.350029
-2.41135
1.9117
-2.22164
2.48909
-0.880994
1.78173
0.898464
0.178319
2.212
-1.52307
2.40913
-2.45685
1.36018
-2.11665
-0.393851
-0.696731
-1.9322
1.07155
-2.4923
2.30942
-1.77869
2.35915
-0.131852
1.18718
1.57706
-0.580679
2.47481
-2.06043
2.11929
-2.49809
0.661207
-1.64104
-1.14776
0.0489683
-2.35544
1.69702
-2.36617
2.48136
-1.16535
1.97538
0.654843
0.434288
2.13149
-1.31835
2.50982
-2.39709
1.61636
-2.24688
-0.117657
-0.91444
-1.79436
0.891692
-2.52859
2.23214
-1.9713
2.43922
-0.406203
1.38031
-1.36751
-2.40875
0.366501
-2.20353
1.90058
-0.884465
2.47656
0.879917
1.77625
2.20949
0.150397
2.39706
-1.54156
1.35184
-2.45357
-0.370372
-2.12134
-1.91555
-0.683874
-2.48594
1.10259
-1.76513
2.31643
-0.146744
2.36111
1.54674
1.18913
2.46806
-0.605784
2.11417
-2.0749
0.667502
-2.48536
-1.11063
-1.6316
-2.33466
0.0742269
-2.36795
1.72979
-1.16672
2.4744
0.628553
1.95011
2.10165
0.404617
2.51624
-1.36808
1.62908
-2.42177
-0.101284
-2.23081
-1.76373
-0.895613
-2.5303
0.923406
-2.00142
2.26383
-0.42736
2.42658
1.35287
-2.39167
-1.37124
-2.19995
0.367704
-0.889499
1.91218
0.891132
2.46355
2.20372
1.76415
2.38344
0.147587
1.36093
-1.56341
-0.368827
-2.46149
-1.9156
-2.10409
-2.46574
-0.675619
-1.76421
1.12122
-0.162266
2.34203
1.54344
2.35303
2.45143
1.17405
2.0999
-0.61252
0.687171
-2.09324
-1.09323
-2.47854
-2.32313
-1.59255
-2.34717
0.101745
-1.17588
1.75534
0.599514
2.4898
2.09102
1.91869
2.50369
0.363171
1.62715
-1.39436
-0.0705701
-2.4482
-1.74656
-2.22358
-2.53386
-0.855704
-2.00442
0.945619
-0.45638
2.27771
1.31945
2.43057
-2.39573
-2.21038
-1.35842
-0.876762
0.365657
0.893968
1.91916
2.20094
2.48084
2.39878
1.75379
1.36011
0.135935
-0.378095
-1.56404
-1.90494
-2.47602
-2.46783
-2.10027
-1.77394
-0.647712
-0.155207
1.13177
1.53367
2.35074
2.43418
2.35967
2.10685
1.14758
0.689194
-0.634536
-1.08996
-2.08985
-2.29765
-2.47326
-2.34104
-1.56016
-1.18864
0.154768
0.595144
1.77778
2.0696
2.49458
2.48227
1.91027
1.63953
0.319934
-0.0587413
-1.42698
-1.73824
-2.44822
-2.51432
-2.21963
-2.01383
-0.829709
-0.485497
0.983569
1.30916
2.28015
2.41986
-2.21167
-2.41266
-0.886695
-1.35722
0.887299
0.392473
2.22286
1.9315
2.41
2.49458
1.36049
1.76795
-0.36562
0.117288
-1.91266
-1.58103
-2.48528
-2.4735
-1.77073
-2.10454
-0.162745
-0.634244
1.52178
1.15987
2.44393
2.34843
2.10529
2.34724
0.683804
1.13551
-1.07248
-0.666675
-2.29271
-2.10054
-2.34636
-2.4472
-1.18138
-1.53317
0.581464
0.195677
2.04584
1.82096
2.48249
2.49437
1.63663
1.89285
-0.0578079
0.303039
-1.7128
-1.45933
-2.50692
-2.45609
-2.02507
-2.19447
-0.488223
-0.813516
1.29015
1.00334
2.40246
2.29875
-2.23574
-0.916353
-2.41078
0.890327
-1.35521
2.22889
0.41753
2.41988
1.97351
1.38977
2.50537
-0.359628
1.76567
-1.92638
0.111802
-2.48816
-1.61081
-1.78823
-2.48749
-0.181501
-2.08921
1.53102
-0.62699
2.44636
1.1733
2.10377
2.3622
0.70159
2.3228
-1.07041
1.10461
-2.30057
-0.683957
-2.33792
-2.12221
-1.19003
-2.43808
0.562949
-1.48994
2.04679
0.226513
2.47391
1.84921
1.6285
2.51468
-0.0383957
1.87197
-1.70295
0.27838
-2.50699
-1.46666
-2.01391
-2.46837
-0.499477
-2.18376
1.26852
-0.781737
2.40626
1.01138
2.30168
-0.937618
-2.2701
0.866293
-2.41695
2.21903
-1.32279
2.44875
0.445147
1.41222
2.0044
-0.351312
2.53021
-1.9144
1.74616
-2.50471
0.0828471
-1.81774
-1.62582
-0.18635
-2.50744
1.52467
-2.0836
2.44517
-0.59674
2.12871
1.18061
0.712062
2.36049
-1.0732
2.31441
-2.29142
1.06222
-2.34813
-0.720175
-1.20969
-2.13069
0.563949
-2.44289
2.03808
-1.46663
2.46384
0.271564
1.64442
1.86692
-0.0309035
2.52098
-1.70101
1.87256
-2.48864
0.249567
-2.01595
-1.48499
-0.515615
-2.46089
1.26947
-2.18279
2.39822
-0.767422
2.2964
1.03564
-0.977285
0.823923
-2.28064
2.21677
-2.41987
2.45761
-1.29478
1.42967
0.49446
-0.31531
2.02115
-1.90711
2.52774
-2.52352
1.73293
-1.82894
0.0400894
-0.20992
-1.65317
1.50677
-2.50058
2.4632
-2.07669
2.14446
-0.574933
0.722168
1.20947
-1.05123
2.35231
-2.29472
2.292
-2.36807
1.03701
-1.21359
-0.768316
0.549498
-2.15922
2.02399
-2.43534
2.478
-1.45726
1.65202
0.297741
-0.0270701
1.90038
-1.6787
2.51799
-2.48497
1.85937
-2.02654
0.240837
-0.51255
-1.51038
1.25757
-2.4678
2.38368
-2.16441
2.31031
-0.762932
1.04459
0.796439
-1.01996
2.19078
-2.29451
2.45034
-2.39282
1.46366
-1.27027
-0.288523
0.52295
-1.89804
2.04249
-2.51497
2.50268
-1.85103
1.69691
-0.243297
0.0184285
1.50305
-1.6773
2.46384
-2.49524
2.15376
-2.04154
0.756512
-0.556012
-1.03691
1.22706
-2.3011
2.36727
-2.36801
2.26623
-1.2334
0.998995
0.525393
-0.799798
2.02904
-2.19943
2.48104
-2.44552
1.65668
-1.43223
0.000191124
0.312893
-1.66809
1.91691
-2.48893
2.53157
-2.01951
1.83686
-0.525162
0.21781
1.23696
-1.51629
2.38787
-2.48196
2.31017
-2.15976
1.04573
-0.739401
0.75923
2.15383
-1.03199
2.45455
-2.30289
1.47783
-2.37332
-0.26876
-1.23078
-1.86339
0.530601
-2.51176
2.03348
-1.87433
2.48677
-0.256716
1.65535
1.48136
-0.00516139
2.45179
-1.666
2.17942
-2.48507
0.778308
-2.01666
-1.02527
-0.51807
-2.28298
1.24058
-2.37871
2.37639
-1.26042
2.26729
0.518857
0.956567
2.0187
-0.844771
2.47693
-2.22008
1.68284
-2.46219
0.0166269
-1.42007
-1.66262
0.346356
-2.47305
1.92301
-2.02748
2.52816
-0.547459
1.83143
1.23325
0.187073
2.37639
-1.53409
2.30152
-2.47411
1.06628
-2.16022
-0.728255
2.13988
0.726205
2.44125
-1.04375
1.47853
-2.28216
-0.233229
-2.36125
-1.84056
-1.21609
-2.50914
0.54228
-1.87115
2.00668
-0.280399
2.4574
1.45086
1.64591
2.45392
-0.0168888
2.18591
-1.65403
0.790474
-2.45208
-0.992721
-2.00456
-2.27461
-0.498707
-2.39264
1.27772
-1.26604
2.38875
0.498126
2.26241
1.99929
0.936192
2.49063
-0.894136
1.69488
-2.24807
0.026603
-2.45253
-1.63646
-1.41106
-2.47007
0.366615
-2.04301
1.94552
-0.551659
2.51358
1.21379
1.81092
2.35525
0.177575
2.3105
-1.55494
1.07276
-2.47478
-0.72284
-2.13741
2.12159
2.42264
0.726723
1.49428
-1.05046
-0.217144
-2.27177
-1.82704
-2.33663
-2.48424
-1.22133
-1.87574
0.529218
-0.305904
1.99856
1.44124
2.43302
2.43925
1.64196
2.17982
0.00821482
0.817399
-1.64346
-0.975557
-2.44255
-2.27175
-1.98701
-2.3837
-0.491451
-1.28237
1.30575
0.471317
2.4274
1.99842
2.2514
2.48855
0.903242
1.6976
-0.916958
0.0547382
-2.27185
-1.62429
-2.44527
-2.47395
-1.37695
-2.0384
0.378754
-0.569063
1.95052
1.18677
2.51507
2.35242
1.78326
2.30416
0.159004
1.0707
-1.54965
-0.697244
-2.47671
-2.12456
2.42946
2.1081
1.49497
0.72554
-0.213801
-1.03163
-1.79943
-2.27153
-2.47448
-2.3362
-1.88424
-1.21739
-0.306675
0.507034
1.42174
1.98589
2.41769
2.44627
2.1899
1.64962
0.825922
0.0271246
-0.969
-1.62199
-2.25016
-2.45886
-2.38667
-1.99553
-1.30298
-0.465209
0.466268
1.32791
1.98448
2.44744
2.47811
2.25025
1.71748
0.86306
0.0666771
-0.941011
-1.62121
-2.26068
-2.4589
-2.43465
-2.04649
-1.35318
-0.591672
0.406848
1.18147
1.94261
2.33726
2.50067
2.29019
1.77777
1.08667
0.139596
-0.686169
-1.55062
-2.11754
-2.4542
2.43016
1.49027
2.12406
-0.1953
0.724013
-1.79233
-1.02759
-2.4766
-2.25983
-1.87371
-2.35227
-0.317668
-1.23144
1.4
0.510499
2.41879
1.98167
2.18628
2.46232
0.824734
1.68585
-0.946287
0.0340496
-2.24438
-1.63422
-2.39671
-2.47322
-1.30221
-2.00912
0.450128
-0.445396
1.96538
1.36667
2.48772
2.44114
1.7226
2.2225
0.0690686
0.847768
-1.60127
-0.957053
-2.45919
-2.24817
-2.06151
-2.39816
-0.592131
-1.33964
1.16681
0.414286
2.31895
1.94838
2.29789
2.47835
1.08848
1.76373
-0.684712
0.146836
-2.09255
-1.5535
-2.44357
1.50829
2.4305
-0.192745
2.13159
-1.79842
0.741886
-2.46585
-1.03684
-1.88052
-2.2712
-0.334913
-2.35462
1.4018
-1.2495
2.41091
0.511311
2.17866
2.01114
0.8435
2.48042
-0.938796
1.70406
-2.24772
0.0439255
-2.38833
-1.67122
-1.31456
-2.50187
0.428817
-1.98859
1.96839
-0.423612
2.48591
1.38311
1.72151
2.43342
0.0902071
2.18305
-1.59713
0.832331
-2.46909
-0.937764
-2.05799
-2.23485
-0.604372
-2.37679
1.14967
-1.31548
2.32632
0.404832
2.29695
1.9365
1.08446
2.47801
-0.666185
1.74865
-2.08541
0.146195
-2.44297
-1.53533
1.51602
-0.19711
2.45404
-1.78909
2.13232
-2.47505
0.740645
-1.89949
-1.0353
-0.334391
-2.29641
1.39199
-2.37129
2.40048
-1.24054
2.1952
0.517044
0.851653
2.03446
-0.937468
2.51523
-2.23225
1.70114
-2.39484
0.0208481
-1.33465
-1.69214
0.427714
-2.51782
1.95987
-1.96756
2.47998
-0.383395
1.74283
1.37546
0.0992891
2.4049
-1.60062
2.17407
-2.46159
0.825344
-2.07028
-0.921526
-0.62397
-2.203
1.15537
-2.37319
2.32645
-1.31722
2.29564
0.407047
1.10401
1.9171
-0.662207
2.46991
-2.09103
1.75937
-2.42944
0.140318
-1.5341
-0.180141
1.51956
-1.79461
2.46426
-2.49503
2.14863
-1.90352
0.72499
-0.350536
-1.0551
1.37521
-2.30496
2.41243
-2.39042
2.20241
-1.23629
0.856939
0.550167
-0.913835
2.05088
-2.2295
2.52391
-2.40898
1.6982
-1.3364
-0.0209265
0.412217
-1.71646
1.94488
-2.49501
2.49602
-1.94936
1.75425
-0.368801
0.104871
1.37635
-1.58265
2.37788
-2.46835
2.17034
-2.09235
0.850637
-0.626412
-0.912563
1.14785
-2.19503
2.32364
-2.36487
2.32079
-1.33742
1.11614
0.393591
-0.663845
1.92281
-2.08153
2.46241
-2.43793
1.76085
-1.54806
0.151414
-0.173977
-1.80518
1.54424
-2.49587
2.46578
-1.92338
2.14562
-0.375982
0.722039
1.37692
-1.08578
2.41165
-2.3257
2.20526
-2.38295
0.885236
-1.23043
-0.900637
0.572442