# vtk DataFile Version 3.1
vtk output
ASCII
DATASET POLYDATA
POINTS 16583 float
0.345974 1.407635 -6.744186 
-1.737806 0.012700 -6.113849 
-2.667561 -0.095254 -5.585821 
-1.744432 -1.659377 -4.383486 
1.497359 -0.174645 -7.735419 
1.327298 -2.985934 -0.146335 
0.741677 1.771686 -5.498395 
-0.640494 1.940346 -5.166335 
-2.563555 -1.339922 -4.303985 
0.273986 2.217631 -4.348547 
-1.657388 -1.274347 -6.681404 
2.367610 2.197907 -2.917168 
1.456337 -3.020938 -0.146335 
-1.850594 -0.026150 -6.162613 
2.115552 0.304129 -4.522668 
-1.849238 -1.557183 -4.414577 
1.909107 -2.617497 -0.247123 
-2.095255 -2.041162 -1.899217 
1.333952 2.979818 -0.646721 
1.391405 -1.341707 -7.044872 
1.702324 -1.371203 -6.777668 
0.039390 3.252681 -0.291950 
0.641236 -2.031433 -5.019622 
-2.556389 -0.229105 -0.247709 
-1.761465 -0.407132 -7.581695 
-0.825120 -2.235384 -3.329704 
2.622702 0.556505 -5.079782 
-3.398561 -0.424410 -0.679711 
-3.104154 -0.049402 -3.258270 
0.373173 2.279162 -4.302395 
1.328608 -3.048839 -0.065355 
-0.706399 0.140515 -7.895478 
-2.991202 1.244832 -1.003312 
0.779041 1.897610 -5.433491 
0.385991 3.300114 -0.789695 
-1.680414 -0.115722 -6.091845 
-0.419434 -2.542648 -2.486217 
2.133386 -1.124249 -3.256962 
1.224741 1.402086 -5.975363 
0.132795 3.185688 -1.714530 
0.820576 -0.232289 -8.445334 
1.252184 2.502010 -5.124289 
-2.450956 0.868144 -5.252435 
2.529606 -1.529702 -1.207006 
-1.673312 1.427832 -4.592894 
2.156438 0.855788 -4.297727 
-1.728450 2.472265 -1.834450 
1.851930 -1.410471 -5.411144 
2.198110 0.298457 -4.444006 
-1.558860 0.183877 -6.477617 
-1.764787 -0.099000 -7.303850 
1.957216 0.724293 -5.001594 
2.203532 0.742626 -3.409499 
2.325082 0.840472 -4.798212 
1.668423 -1.300850 -5.016329 
-0.588584 2.104431 -4.963721 
-0.586465 -1.911068 -5.563182 
-1.543130 -0.525932 -6.726590 
-2.945623 -0.351393 -0.177675 
1.823274 2.648641 -0.368220 
-0.381084 -2.570125 -1.620836 
-2.740927 0.086546 -0.495402 
-1.403412 0.114811 -7.261763 
-1.569415 1.478869 -5.126047 
0.655665 -0.309370 -8.545952 
0.899681 2.956066 -3.790513 
-0.138635 1.301615 -7.416993 
0.465041 2.326375 -5.372207 
-1.341096 -2.748435 -1.377649 
2.495634 1.678063 -1.947832 
2.245932 -2.162422 -2.732365 
-1.793202 -0.154572 -6.140609 
-2.517337 0.808496 -4.481010 
0.907028 -2.017951 -6.047220 
-2.365566 0.967906 -4.429661 
-1.981078 -2.446352 -0.218112 
-0.062166 3.047242 -0.952832 
0.347749 2.567635 -0.262839 
-2.603417 -1.894355 -2.407812 
-1.210272 -2.808807 -3.671776 
0.881354 -2.457387 -0.488317 
0.758264 -3.025969 -2.160948 
1.302253 2.769587 -2.551485 
-2.784736 -0.875634 -3.902620 
-1.165235 -1.168119 -7.536163 
2.191513 -1.142104 -3.368100 
-1.877227 0.686442 -5.801764 
-1.568774 2.381704 -2.468730 
-1.970035 1.423707 -4.723233 
0.000454 3.102634 -0.292213 
2.384372 0.690134 -3.353106 
-1.938082 -0.567534 -6.808262 
-2.638421 -0.000393 -4.529123 
-2.618400 -1.432291 -2.116203 
2.249560 -1.558023 -3.285800 
0.962499 -0.037551 -7.735967 
0.128954 -0.920488 -8.202400 
-0.186558 2.900066 -1.975491 
1.407913 1.889936 -4.100252 
0.195865 2.551215 -3.933993 
-2.783455 1.068910 -1.082991 
-3.178597 -0.193058 -1.060256 
-3.257685 0.173300 -0.620651 
-2.379371 1.126103 -1.074526 
-2.521432 -0.808410 -4.793032 
0.540171 -0.121791 -8.236169 
0.938258 -0.243467 -7.907294 
-1.616768 2.236738 -2.499484 
1.989483 1.207059 -5.685799 
-0.118554 -3.005309 -2.538166 
-1.292079 1.353190 -5.699109 
-1.548322 -2.310716 -0.153837 
2.183913 -0.449791 -4.411320 
-2.776346 -0.125812 -4.598853 
-2.515790 -0.320612 -5.275031 
-1.715200 -1.071321 -5.574237 
-1.704596 0.335962 -6.264319 
-1.395017 -0.544137 -7.545786 
-2.792836 0.018856 -3.181712 
-1.737740 -0.279625 -6.387727 
-1.708742 2.594026 -2.534163 
2.388489 -1.576041 -1.207138 
2.249721 -0.143457 -4.939853 
-0.476265 -2.282002 -5.777763 
-1.487071 -2.112933 -2.976619 
-0.923495 2.032594 -4.967298 
-1.349896 -2.402110 -2.610695 
-2.406222 -1.020062 -4.769859 
-2.212146 0.035089 -5.091529 
-2.854395 -0.138157 -0.235213 
-2.726550 0.083856 -3.043250 
-2.323329 -1.757270 -0.542800 
-0.382013 -1.738266 -6.316623 
-1.775957 1.808657 -4.080825 
-1.331181 -0.070730 -7.787120 
1.461645 1.855283 -3.974381 
-0.336603 -1.685427 -6.164879 
-1.791431 2.785108 -0.521463 
2.539442 0.910633 -3.054877 
-1.554532 -2.277528 -2.742045 
-2.735694 -0.215995 -1.168892 
2.503501 2.046293 -0.289414 
1.812922 2.520341 -2.852373 
-1.663521 2.690159 -0.441011 
-1.479718 1.276564 -6.156868 
-2.823675 0.017354 -2.962572 
1.331081 -1.812226 -5.246867 
-0.803059 -2.599191 -2.821289 
-2.361548 -0.736636 -4.440156 
1.382164 1.801580 -4.840686 
2.329216 0.602386 -3.892413 
0.588451 2.451525 -4.389601 
0.467190 2.243015 -4.429910 
-2.800822 0.031355 -0.390868 
0.978690 2.121878 -4.141035 
1.623493 2.639234 -2.988845 
-1.757791 1.431974 -4.711795 
-2.262410 1.858394 -2.812474 
-2.563758 -1.367802 -2.233669 
-1.438798 -0.502017 -6.856278 
1.623892 -1.233088 -6.535690 
0.929021 -1.380173 -6.553307 
-0.396746 2.452367 -4.362602 
-1.507691 1.160483 -5.818301 
-1.859093 -1.104628 -4.900414 
1.719597 2.409918 -2.949435 
0.833289 -0.342322 -7.874204 
-0.007436 0.240288 -8.208305 
-0.150078 2.371517 -6.022075 
0.471330 3.229055 -1.380884 
2.736486 -0.899598 -2.230218 
-1.647498 2.451136 -2.338345 
0.053734 -0.895097 -8.381626 
-0.272281 2.982846 -1.868933 
2.298995 -1.502550 -3.992613 
-0.854241 1.924996 -5.145132 
0.277753 3.149919 -1.354870 
-2.612839 0.699422 -2.786932 
-2.131203 -0.631810 -6.542392 
-2.203708 1.093594 -5.501574 
0.731141 -1.567037 -6.410244 
0.692923 -0.263461 -7.858977 
2.695545 -0.680597 -3.171848 
-1.910517 1.947042 -4.015100 
-0.350583 2.506730 -4.502078 
1.455182 2.483265 -1.257040 
0.949633 2.858814 -1.930049 
2.221283 -0.552454 -4.510023 
2.368715 -0.575970 -4.536349 
-1.538468 -2.276150 -3.030238 
-2.416584 -0.908483 -4.873246 
-2.611717 0.706529 -2.929974 
-2.106183 1.059907 -5.616266 
-2.609327 -0.959395 -3.643865 
-1.665950 0.569278 -6.344524 
-0.288225 -1.832529 -6.102544 
1.452534 -2.873026 -1.354300 
0.387427 3.235148 -0.178607 
1.206106 -2.381841 -2.538391 
0.365808 -2.539384 -2.442305 
-2.148679 1.742239 -2.659444 
1.905201 1.007382 -4.404953 
1.895729 1.157224 -4.373313 
-2.130290 2.345780 -0.270650 
-2.661223 -0.236851 -1.053969 
2.450327 1.832697 -0.123864 
0.828033 3.093380 -0.580698 
0.467874 3.204017 -1.503431 
-0.421234 -0.961508 -8.260816 
-0.267028 2.132601 -5.397463 
-0.238299 2.893144 -1.772146 
-0.976724 -3.126291 -0.474629 
-2.238714 1.473616 -1.658990 
2.934832 -0.423462 -1.251365 
2.380448 -1.983518 -0.328708 
2.290473 -1.966178 -0.087249 
1.588447 2.498299 -3.036129 
-0.851401 2.627438 -1.910117 
-2.156925 1.490374 -2.488868 
0.870723 2.326937 -4.099112 
2.405871 -1.697601 -4.163897 
2.013635 0.733896 -4.434483 
-3.389895 -0.106181 -1.017460 
2.899815 -0.611173 -1.116873 
0.546045 0.015128 -8.088541 
2.980026 -0.441617 -1.523861 
1.163477 2.109334 -5.005796 
1.046031 2.334131 -5.142330 
0.586729 3.125912 -1.357690 
-1.119180 -3.082570 -0.497705 
1.500165 -1.123780 -6.499947 
0.151275 -2.965724 -2.606496 
2.652679 -1.060702 -2.358589 
-1.835560 2.400772 -1.860570 
2.164944 0.346324 -5.452781 
2.241559 -0.061091 -4.811989 
-0.230691 0.790512 -7.873026 
-0.073216 3.263372 -0.189778 
-2.010663 2.237105 -0.184556 
1.958174 1.270694 -6.079886 
1.544803 -1.675949 -5.492348 
0.719231 -1.486927 -6.632852 
-2.774663 0.518752 -2.792795 
0.849758 -0.084368 -7.858045 
1.058338 -0.290048 -7.771775 
3.026446 -0.369493 -1.357715 
-0.240377 -0.555286 -8.408543 
-1.829019 -0.983902 -6.704908 
-2.643320 -0.828690 -3.722560 
-2.374573 -0.915622 -4.050874 
-1.899592 -0.237083 -6.332417 
-0.229573 -1.103026 -8.187902 
0.788425 -2.694529 -4.388464 
2.128564 0.707671 -4.337736 
-1.840304 -0.990972 -6.445194 
0.781586 2.824570 -1.941005 
1.501407 2.553547 -1.394082 
-1.513150 -0.095349 -7.621976 
1.406603 2.629118 -1.188545 
-0.947844 -3.044838 -0.622237 
-1.941633 1.810371 -4.826335 
-3.233916 0.008059 -1.055622 
1.452732 1.988057 -3.907477 
-1.076600 -2.268217 -3.969907 
-0.425252 -2.155211 -5.684489 
1.053519 -1.446198 -6.263429 
-0.746683 -0.805149 -7.752781 
0.005408 2.380553 -3.981873 
-1.636816 -0.612158 -6.822785 
-2.783139 -0.973175 -3.606207 
0.077305 2.621422 -4.024455 
-0.841858 -2.929213 -0.315134 
-1.940622 -0.938712 -6.618137 
-1.373429 -0.812553 -6.452411 
0.583273 3.100873 -1.480238 
-2.446864 -0.350063 -5.534508 
-1.766014 0.346723 -6.388941 
2.547339 0.143228 -4.881523 
1.861658 1.453766 -5.580177 
-1.500580 0.982410 -6.264976 
-2.270252 1.723779 -2.763917 
1.431945 -1.376686 -6.638700 
-1.563273 -2.352127 -2.886032 
-2.208995 -0.704808 -4.416296 
-2.214001 2.317171 -0.176708 
0.033315 -3.001416 -2.500056 
-2.718377 0.637543 -3.019412 
1.383645 -2.710785 -1.409230 
-2.264972 1.613522 -2.478832 
-2.667037 0.574981 -2.723688 
-1.609384 0.457157 -6.265946 
1.108037 1.959781 -4.972205 
1.599720 2.206011 -5.169335 
1.746394 0.923675 -5.353993 
0.379781 3.080088 -0.174787 
2.358686 -1.879053 -0.208141 
-0.020545 2.469882 -6.025715 
0.058715 3.161625 -2.807198 
-2.323640 -1.039392 -3.977654 
2.796340 -0.630864 -1.232829 
1.773046 1.381776 -5.872696 
-0.903980 -0.655026 -7.543298 
1.862697 1.167679 -6.429253 
2.084540 0.287074 -5.328786 
-2.013815 1.641248 -5.010671 
-0.849047 2.189919 -5.149788 
1.847713 1.348330 -6.489882 
-2.660461 -0.204137 -5.398203 
-2.063134 -1.289434 -5.517625 
1.328840 0.347670 -7.717821 
0.726255 -1.202365 -7.074778 
-1.564198 -1.112837 -5.565736 
-2.006849 -1.620049 -0.477322 
0.718601 0.143806 -7.945322 
-0.047628 2.526712 -4.020636 
0.742754 0.920072 -7.421206 
-0.152575 2.810364 -1.878703 
0.597561 0.220892 -8.192105 
0.959028 -0.238836 -7.514055 
-0.057256 -1.075837 -8.229064 
0.391668 0.967349 -7.437937 
0.008383 2.415171 -5.856146 
-1.383138 1.374111 -5.824590 
0.692665 -0.125479 -7.809749 
1.057585 -0.127314 -7.586379 
-1.345109 1.290679 -6.078580 
2.529102 0.707975 -3.910070 
-1.649790 1.179748 -5.871423 
1.777234 1.166485 -6.276356 
2.617750 0.137614 -4.737803 
[...]
POINT_DATA 16583 
VECTORS    Normal    double 
0.581167 0.244391 0.776220 
-0.302301 0.478817 0.824226 
-0.181586 -0.718737 0.671151 
-0.288835 0.009475 0.957332 
0.564403 0.397693 0.723387 
0.447638 0.193013 0.873136 
0.561996 0.031811 0.826528 
0.372105 0.363569 0.854023 
0.107889 -0.575992 0.810305 
0.487407 0.119220 0.864997 
-0.006560 -0.582016 0.813151 
-0.410925 0.580060 0.703329 
0.556744 0.262902 0.787984 
-0.342496 0.280072 0.896803 
0.252966 -0.516410 0.818125 
-0.273407 0.004899 0.961886 
0.365342 0.254792 0.895325 
-0.018333 -0.097327 0.995084 
-0.442971 0.224637 0.867937 
0.618806 0.069603 0.782454 
0.654662 0.320199 0.684756 
-0.466551 0.016669 0.884337 
-0.312589 -0.337341 0.887969 
-0.058206 0.558692 0.827331 
-0.195389 -0.782149 0.591663 
-0.518891 0.059345 0.852778 
0.107455 0.553440 0.825929 
0.069842 -0.722348 0.687994 
-0.109862 -0.597855 0.794040 
0.403453 0.121653 0.906877 
0.527704 0.227460 0.818407 
-0.620042 0.515895 0.591101 
-0.218261 -0.425971 0.878015 
0.423199 0.111624 0.899134 
-0.582345 0.095738 0.807285 
-0.324007 0.537088 0.778817 
-0.400919 -0.031588 0.915569 
-0.116883 -0.485624 0.866319 
0.483106 -0.011838 0.875482 
-0.458914 0.085135 0.884392 
0.813478 0.275030 0.512457 
-0.548499 0.480795 0.684094 
-0.380739 -0.359458 0.851955 
0.060559 0.001973 0.998163 
0.140780 0.465295 0.873889 
0.307661 -0.270332 0.912286 
-0.207050 -0.050445 0.977029 
0.276393 -0.100746 0.955750 
0.244788 -0.435111 0.866462 
-0.278027 0.544164 0.791572 
-0.419306 -0.464408 0.780069 
0.365972 -0.361890 0.857380 
0.295079 -0.495163 0.817155 
0.203602 0.131060 0.970242 
-0.082027 -0.470589 0.878531 
0.265746 0.313427 0.911670 
-0.432500 -0.151969 0.888735 
-0.473559 0.111395 0.873690 
-0.007168 -0.002405 0.999971 
-0.329242 0.244010 0.912173 
-0.464053 0.009499 0.885757 
-0.008515 0.332400 0.943100 
-0.498367 0.201255 0.843283 
0.042449 0.400340 0.915383 
0.883246 0.143329 0.446468 
-0.631787 0.324922 0.703755 
0.101222 0.562453 0.820610 
-0.086689 0.298889 0.950342 
0.168296 -0.145953 0.974871 
-0.042564 0.210775 0.976608 
0.427844 0.292889 0.855082 
-0.356316 0.344870 0.868392 
-0.268103 -0.144426 0.952503 
0.355832 -0.199863 0.912929 
-0.215837 0.032035 0.975904 
0.225780 -0.194184 0.954629 
-0.164580 0.036389 0.985692 
0.529282 -0.062774 0.846121 
0.287002 -0.538911 0.791963 
0.522398 -0.370008 0.768241 
-0.469930 -0.186401 0.862798 
0.421362 0.016844 0.906736 
-0.302545 0.257310 0.917746 
-0.009828 -0.504438 0.863392 
0.000932 -0.668204 0.743978 
-0.055589 -0.401834 0.914024 
-0.199608 0.342869 0.917931 
-0.079936 0.075497 0.993937 
-0.159965 0.172016 0.972019 
-0.225061 0.012049 0.974270 
0.233988 -0.317206 0.919038 
-0.241373 -0.525004 0.816155 
-0.213651 -0.228250 0.949871 
0.010104 -0.205933 0.978514 
0.124838 -0.077942 0.989111 
0.629358 -0.321666 0.707418 
0.347039 -0.692933 0.631988 
-0.041493 0.081950 0.995772 
0.399733 -0.079720 0.913158 
0.120482 0.171475 0.977794 
-0.065674 -0.044058 0.996868 
-0.017767 -0.395484 0.918301 
-0.049193 -0.489258 0.870750 
0.159701 0.427772 0.889667 
-0.105713 -0.398919 0.910873 
0.831790 -0.270373 0.484793 
0.654634 -0.258873 0.710239 
0.032534 0.155360 0.987322 
0.135044 0.349800 0.927040 
0.290238 -0.118279 0.949617 
0.170963 0.530064 0.830544 
-0.238105 0.152300 0.959224 
0.086788 -0.485430 0.869957 
-0.174356 -0.494182 0.851695 
-0.203057 -0.401213 0.893195 
-0.409938 0.132111 0.902495 
-0.252705 0.453565 0.854646 
-0.405648 -0.432974 0.804974 
-0.142238 -0.074150 0.987051 
-0.405145 0.226532 0.885743 
-0.433557 -0.165853 0.885732 
-0.023005 -0.125638 0.991809 
0.220698 -0.259048 0.940312 
0.219094 -0.352007 0.909994 
-0.315414 0.071608 0.946249 
0.145427 0.326343 0.933997 
-0.146485 -0.046482 0.988120 
-0.098442 -0.346816 0.932753 
-0.243283 0.252659 0.936470 
-0.017675 0.167675 0.985684 
-0.131935 0.067089 0.988985 
-0.063068 0.046127 0.996943 
-0.371027 -0.280931 0.885108 
-0.060337 0.205401 0.976816 
-0.574143 -0.299250 0.762109 
0.412324 -0.113784 0.903904 
-0.528313 -0.211656 0.822245 
-0.482711 -0.288496 0.826898 
0.162458 -0.057134 0.985060 
-0.130854 -0.054772 0.989887 
-0.069083 0.292151 0.953874 
-0.267383 0.344664 0.899841 
-0.350522 0.387521 0.852621 
-0.287548 -0.157017 0.944808 
-0.183689 0.321499 0.928922 
-0.131221 -0.075310 0.988488 
0.057687 -0.287744 0.955968 
-0.151379 -0.080887 0.985161 
-0.225553 0.013849 0.974132 
0.343404 0.025167 0.938851 
0.248044 -0.300370 0.921006 
0.068530 0.198613 0.977679 
0.398475 0.114926 0.909951 
-0.012687 0.250484 0.968037 
0.423575 -0.002031 0.905859 
-0.390958 0.374665 0.840701 
0.027598 0.376415 0.926040 
-0.231497 -0.090262 0.968639 
-0.049963 -0.110611 0.992607 
-0.508217 0.165407 0.845196 
0.463857 -0.011054 0.885841 
-0.059201 -0.498540 0.864843 
0.056315 0.217875 0.974351 
0.007317 0.487343 0.873180 
-0.391591 0.228386 0.891345 
-0.171287 0.276580 0.945602 
0.563807 -0.459946 0.685982 
0.283988 0.928373 0.239740 
-0.513274 0.258089 0.818498 
-0.529688 0.128011 0.838477 
0.101247 0.000623 0.994861 
-0.196708 -0.011425 0.980396 
0.488368 -0.679327 0.547733 
-0.174516 0.063548 0.982602 
0.274472 0.086911 0.957659 
0.257490 0.374467 0.890771 
-0.376204 0.087154 0.922429 
-0.076226 0.177637 0.981140 
-0.143502 -0.634533 0.759457 
-0.400543 -0.198784 0.894455 
-0.137314 -0.464699 0.874757 
0.499595 -0.625402 0.599398 
0.149640 0.015503 0.988619 
-0.271022 -0.007706 0.962542 
-0.066808 0.209294 0.975568 
0.101946 0.000962 0.994789 
-0.168467 0.141759 0.975461 
0.111457 -0.382949 0.917021 
0.185788 -0.152875 0.970625 
-0.103314 -0.091525 0.990429 
-0.123445 -0.335077 0.934069 
-0.090794 0.151422 0.984290 
-0.368676 -0.087488 0.925432 
-0.094291 -0.220324 0.970859 
-0.235184 0.412469 0.880090 
-0.360053 -0.276527 0.891008 
0.445226 0.167447 0.879622 
-0.469105 0.062940 0.880897 
-0.174986 -0.206300 0.962715 
-0.394643 -0.151207 0.906307 
-0.039751 0.133639 0.990232 
0.409515 -0.412385 0.813779 
0.402199 -0.317094 0.858887 
-0.253301 -0.215405 0.943101 
-0.074842 0.399495 0.913675 
-0.087307 0.125319 0.988268 
-0.375988 0.124170 0.918267 
-0.502438 0.129716 0.854827 
0.156025 -0.783763 0.601143 
0.179067 0.297719 0.937709 
-0.010802 0.074661 0.997150 
0.477692 -0.167590 0.862394 
0.137091 0.325118 0.935684 
0.059527 0.043408 0.997282 
0.150668 0.159679 0.975603 
0.058146 0.062149 0.996372 
-0.200267 0.280218 0.938813 
0.166146 0.136573 0.976598 
0.104129 0.325981 0.939624 
0.230102 0.113817 0.966488 
0.473215 0.393912 0.787973 
0.352262 -0.470889 0.808811 
-0.009662 -0.698737 0.715313 
0.053737 0.027304 0.998182 
0.827499 -0.273726 0.490223 
0.086221 0.144110 0.985798 
0.090379 0.236476 0.967425 
-0.216644 0.366083 0.905013 
-0.395126 0.128299 0.909624 
0.475956 -0.192255 0.858198 
0.295539 -0.257592 0.919947 
0.250094 -0.098633 0.963184 
0.099925 -0.024416 0.994695 
-0.215264 -0.066049 0.974320 
0.297968 -0.072546 0.951815 
0.214220 -0.316824 0.923976 
0.094613 0.755345 0.648462 
-0.482628 -0.003730 0.875818 
-0.056074 -0.040042 0.997623 
0.000924 0.551923 0.833894 
0.229161 -0.180818 0.956447 
-0.090497 -0.483109 0.870871 
-0.127518 -0.015549 0.991714 
0.660006 -0.352829 0.663253 
0.603420 -0.249321 0.757445 
0.080274 0.189808 0.978534 
-0.141096 -0.870799 0.470958 
-0.106119 -0.570516 0.814402 
-0.106988 -0.222431 0.969060 
-0.208453 0.020057 0.977827 
-0.376935 0.030765 0.925729 
0.319971 -0.710796 0.626408 
0.490575 -0.052620 0.869809 
0.314693 -0.380693 0.869506 
-0.180367 -0.430906 0.884188 
-0.046960 0.099012 0.993978 
-0.021531 0.080951 0.996486 
-0.501034 -0.392544 0.771280 
-0.040839 0.078577 0.996071 
0.351408 -0.135108 0.926422 
-0.416573 -0.120744 0.901048 
-0.041143 -0.471355 0.880983 
0.315747 -0.017981 0.948673 
-0.233357 -0.088420 0.968363 
-0.051788 -0.300706 0.952310 
-0.054741 -0.467804 0.882136 
-0.512109 -0.402260 0.758902 
0.366265 0.167820 0.915252 
-0.406136 -0.155021 0.900568 
0.004645 -0.465740 0.884909 
-0.019931 0.188111 0.981946 
0.126843 -0.050101 0.990657 
-0.081191 -0.611499 0.787068 
-0.541754 0.245564 0.803867 
-0.366147 0.128745 0.921608 
-0.210474 -0.425880 0.879958 
-0.319494 0.292533 0.901303 
0.223933 0.235464 0.945733 
0.084173 0.360024 0.929138 
-0.119245 0.451235 0.884403 
-0.143938 0.010600 0.989530 
0.460221 -0.084009 0.883821 
-0.019931 -0.139283 0.990052 
-0.287409 0.255417 0.923124 
-0.286041 -0.263732 0.921209 
0.278895 -0.102411 0.954845 
-0.138432 -0.005064 0.990359 
0.199770 0.035818 0.979188 
-0.035860 0.133079 0.990457 
-0.087773 0.148838 0.984959 
-0.175113 0.554698 0.813416 
0.323636 0.092240 0.941675 
-0.381741 0.532070 0.755761 
0.439444 -0.320617 0.839103 
-0.221878 0.034598 0.974460 
0.057529 0.058276 0.996642 
-0.639978 0.251079 0.726215 
-0.586907 0.112686 0.801775 
-0.213593 0.030684 0.976441 
0.026224 -0.116282 0.992870 
0.126179 0.351158 0.927775 
-0.645947 -0.091120 0.757924 
0.038963 0.566085 0.823425 
0.299934 -0.276776 0.912926 
-0.407591 -0.126887 0.904306 
-0.092627 0.244352 0.965253 
-0.132926 0.682025 0.719147 
-0.168235 -0.647700 0.743089 
-0.064633 -0.416520 0.906826 
0.493691 0.388840 0.777864 
-0.041327 -0.566016 0.823357 
-0.487057 0.242788 0.838945 
-0.353629 0.412742 0.839399 
0.781315 -0.160791 0.603070 
0.128206 0.186840 0.973989 
0.600434 0.208674 0.771968 
0.118567 0.085332 0.989273 
0.812179 0.223185 0.539031 
0.405252 -0.611056 0.679986 
0.415105 -0.671420 0.613908 
0.656621 0.292480 0.695201 
-0.465993 0.283740 0.838058 
0.010134 0.437449 0.899186 
0.555996 -0.608711 0.565986 
0.544411 -0.396390 0.739251 
-0.019520 0.451464 0.892076 
0.175040 0.045054 0.983530 
-0.159966 0.322557 0.932935 
0.161366 0.394136 0.904775 
0.208857 0.292465 0.933190 
0.209928 0.236706 0.948631 
-0.324806 0.287301 0.901088 
0.034068 -0.399694 0.916015 
0.319411 0.057580 0.945865 
-0.139395 -0.634277 0.760435 
0.343687 0.073400 0.936211 
0.687147 -0.562887 0.459334 
0.458886 -0.488813 0.741947 
0.313798 0.078546 0.946235 
0.247181 -0.860210 0.446028 
0.095538 0.329193 0.939417 
0.351706 -0.530601 0.771210 
0.452074 -0.719717 0.526913 
0.596189 -0.623542 0.505721 
-0.463706 0.127933 0.876704 
-0.139394 0.322189 0.936356 
0.267311 -0.848079 0.457501 
-0.383835 -0.882273 0.272516 
0.130087 -0.421031 0.897669 
0.262039 0.617410 0.741715 
-0.252350 -0.529579 0.809855 
0.672316 -0.524303 0.522586 
0.403318 0.269518 0.874468 
0.581103 0.175143 0.794761 
0.116453 -0.398050 0.909942 
0.155533 -0.303214 0.940144 
0.415140 0.422746 0.805571 
-0.256827 0.212456 0.942816 
-0.052085 0.321206 0.945576 
-0.222924 0.262602 0.938800 
-0.418280 0.289663 0.860893 
0.045693 0.338840 0.939734 
-0.131934 -0.220334 0.966461 
0.313414 0.009336 0.949571 
-0.397804 -0.045558 0.916338 
0.021485 -0.350305 0.936389 
0.132336 -0.420870 0.897416 
-0.223658 0.479237 0.848710 
-0.096040 -0.698486 0.709150 
0.287132 0.302147 0.908990 
0.349526 0.315380 0.882251 
-0.168511 -0.339358 0.925440 
0.510651 -0.087623 0.855311 
0.310182 -0.023946 0.950376 
-0.199740 -0.135863 0.970384 
0.199654 -0.078941 0.976681 
-0.298134 0.399725 0.866796 
0.047671 -0.166926 0.984816 
0.699497 0.029532 0.714025 
-0.193187 0.089575 0.977065 
-0.480511 0.088005 0.872562 
-0.162798 -0.607130 0.777747 
-0.371581 0.275038 0.886725 
0.203333 0.408607 0.889773 
0.075629 0.334502 0.939355 
-0.597877 0.366009 0.713148 
0.653480 -0.007103 0.756911 
-0.231955 0.713002 0.661684 
-0.108976 0.808381 0.578485 
0.168434 -0.314164 0.934308 
-0.011701 0.245769 0.969258 
-0.383507 0.021228 0.923294 
0.299068 -0.152506 0.941966 
0.241642 0.934718 0.260597 
-0.160520 -0.548962 0.820289 
-0.649750 0.139436 0.747250 
-0.567418 -0.231494 0.790220 
0.418329 -0.347913 0.839022 
-0.063858 0.537770 0.840670 
-0.113890 0.334994 0.935312 
0.008353 0.412620 0.910865 
0.085871 0.228226 0.969814 
0.105765 0.556137 0.824334 
-0.296307 0.234237 0.925924 
-0.204593 0.399591 0.893571 
-0.075763 -0.409825 0.909012 
-0.178317 -0.132403 0.975024 
0.214502 -0.174154 0.961072 
0.136344 0.084353 0.987064 
-0.273667 0.255395 0.927297 
0.564085 -0.475901 0.674779 
0.062793 -0.563272 0.823882 
-0.029608 0.503409 0.863541 
0.425457 0.268624 0.864191 
-0.444275 0.393951 0.804626 
-0.114445 -0.382704 0.916755 
0.178065 0.738327 0.650512 
-0.170125 0.456025 0.873555 
0.119488 -0.119637 0.985601 
0.151087 -0.003235 0.988515 
-0.314440 -0.117445 0.941984 
0.251237 -0.417078 0.873456 
0.066041 -0.002382 0.997814 
-0.284437 0.466230 0.837691 
-0.133441 0.185743 0.973495 
0.123122 0.317582 0.940204 
-0.076275 -0.122883 0.989486 
-0.496290 0.169137 0.851521 
-0.365969 0.100755 0.925157 
0.300810 0.247734 0.920946 
-0.161097 0.660804 0.733066 
0.055292 0.361520 0.930723 
0.318772 0.270659 0.908366 
-0.024257 0.139145 0.989975 
0.086212 0.243336 0.966103 
0.173959 -0.200143 0.964200 
0.247950 0.379902 0.891177 
-0.084805 0.281617 0.955772 
0.129832 0.324642 0.936884 
0.202247 0.517216 0.831615 
0.165011 -0.490328 0.855774 
0.109146 0.416387 0.902612 
0.900487 -0.044758 0.432573 
-0.170239 0.095672 0.980747 
-0.028348 -0.504785 0.862780 
-0.550067 -0.228621 0.803218 
-0.416110 -0.168714 0.893525 
-0.077562 0.071843 0.994396 
0.013211 -0.734300 0.678696 
-0.104186 -0.383577 0.917613 
0.267988 0.053317 0.961946 
0.025558 0.098120 0.994846 
-0.334784 0.008893 0.942253 
-0.234292 -0.453999 0.859647 
0.197229 -0.521692 0.830023 
-0.016849 0.036835 0.999179 
0.373649 -0.344132 0.861371 
-0.199171 0.427959 0.881580 
-0.089224 -0.028946 0.995591 
-0.169734 0.153904 0.973398 
0.265096 -0.411336 0.872082 
-0.363302 -0.591385 0.719913 
-0.028365 -0.480353 0.876616 
-0.144419 0.189214 0.971258 
0.117761 0.443886 0.888311 
-0.012448 0.081550 0.996592 
-0.034842 -0.203308 0.978495 
0.452693 0.144064 0.879952 
-0.429396 0.402760 0.808334 
-0.210143 -0.107867 0.971702 
0.238655 0.403431 0.883339 
0.002095 0.245129 0.969488 
-0.093928 -0.083876 0.992039 
-0.032443 0.261033 0.964785 
-0.476649 0.077462 0.875674 
-0.272527 0.334243 0.902225 
-0.011680 0.101789 0.994737 
-0.290980 0.262447 0.920028 
-0.422143 -0.202989 0.883511 
0.200812 0.023472 0.979349 
-0.401711 -0.236457 0.884713 
-0.155541 0.037156 0.987130 
-0.020621 -0.581499 0.813286 
-0.058662 -0.077327 0.995279 
-0.101621 -0.159514 0.981951 
-0.421683 -0.225099 0.878359 
0.451750 0.314408 0.834907 
0.156880 0.162379 0.974177 
0.083317 -0.026840 0.996162 
-0.539319 -0.260398 0.800830 
0.170013 -0.481261 0.859932 
-0.359035 -0.108626 0.926981 
0.383739 -0.128673 0.914433 
-0.291240 0.337275 0.895223 
-0.319076 -0.086563 0.943768 
0.007754 -0.340388 0.940253 
0.010613 0.576909 0.816739 
-0.268193 0.263158 0.926726 
-0.151885 0.291845 0.944329 
0.001275 0.014656 0.999892 
-0.363481 0.614606 0.700101 
-0.738911 0.070463 0.670109 
-0.286847 0.006778 0.957952 
-0.384149 -0.222030 0.896177 
0.316889 0.449839 0.835001 
-0.131741 0.021185 0.991058 
-0.232838 0.268898 0.934602 
0.125644 0.408520 0.904060 
-0.418278 -0.454448 0.786461 
-0.462161 0.117288 0.879006 
0.142193 0.400306 0.905282 
-0.160880 -0.144634 0.976319 
0.578223 0.135573 0.804536 
-0.191656 -0.469779 0.861728 
-0.398499 -0.483537 0.779353 
0.001072 0.268243 0.963351 
0.298451 -0.133911 0.944984 
0.002810 0.511550 0.859249 
-0.071356 0.358169 0.930926 
-0.207405 0.246679 0.946643 
0.115114 0.342020 0.932615 
-0.345497 0.205235 0.915702 
-0.240468 -0.266324 0.933406 
-0.244277 -0.001012 0.969705 
-0.282587 -0.456608 0.843596 
-0.114682 -0.388590 0.914246 
-0.416352 -0.085228 0.905200 
0.068168 -0.248133 0.966325 
-0.336034 0.094729 0.937074 
-0.181985 0.116466 0.976380 
-0.260599 0.531607 0.805904 
-0.584965 0.149945 0.797077 
0.442205 -0.098494 0.891490 
0.002778 -0.009427 0.999952 
-0.208258 -0.392840 0.895715 
-0.641997 -0.316537 0.698315 
0.211394 -0.063167 0.975358 
-0.359122 0.204665 0.910574 
-0.024100 -0.123059 0.992107 
0.223484 -0.404076 0.887005 
-0.576295 0.445425 0.685187 
0.493858 0.057428 0.867644 
0.551819 -0.521179 0.651051 
-0.235562 -0.917014 0.321863 
0.241044 -0.349277 0.905485 
0.616120 -0.183023 0.766093 
-0.102032 -0.459329 0.882387 
-0.156732 -0.090400 0.983495 
0.448060 0.278788 0.849423 
-0.345067 -0.623667 0.701405 
-0.000212 0.121776 0.992558 
-0.207303 -0.254700 0.944539 
-0.433655 0.302898 0.848644 
-0.119566 0.016923 0.992682 
0.150913 0.348075 0.925240 
0.000036 0.543547 0.839379 
0.266494 0.800994 0.536088 
0.499361 0.446825 0.742285 
-0.247625 -0.344679 0.905471 
-0.039819 -0.100002 0.994190 
0.226647 -0.509820 0.829888 
0.309629 -0.147927 0.939280 
-0.042850 -0.179993 0.982734 
0.054292 -0.244886 0.968031 
0.314489 -0.281481 0.906568 
0.217890 -0.444899 0.868671 
0.516913 -0.029988 0.855512 
0.100118 -0.658686 0.745728 
0.397871 0.364875 0.841763 
0.186598 -0.141520 0.972190 
0.518436 -0.114188 0.847458 
-0.039861 -0.605917 0.794528 
-0.418004 0.063167 0.906247 
0.176318 -0.072563 0.981655 
-0.311123 0.080869 0.946923 
0.238762 -0.281418 0.929407 
-0.354450 0.172207 0.919081 
-0.082140 -0.403066 0.911477 
-0.218088 0.028214 0.975521 
-0.482116 0.128282 0.866665 
-0.383590 -0.900758 0.203699 
0.338064 0.243672 0.909031 
-0.312135 0.523508 0.792787 
-0.545557 0.340652 0.765718 
0.071778 -0.074976 0.994599 
-0.613505 0.177138 0.769567 
0.101425 0.231466 0.967541 
-0.303145 -0.414479 0.858085 
-0.088220 -0.167822 0.981862 
0.235650 -0.070621 0.969269 
-0.509419 0.113120 0.853051 
-0.302742 -0.263792 0.915839 
-0.410920 0.043150 0.910650 
-0.013303 0.089165 0.995928 
-0.261735 -0.378521 0.887816 
0.290049 0.466515 0.835605 
0.311587 0.113651 0.943396 
-0.208026 -0.001573 0.978122 
0.572033 -0.369401 0.732340 
0.089871 -0.061187 0.994072 
-0.004268 0.368869 0.929472 
-0.432207 0.166140 0.886338 
-0.382806 -0.004022 0.923820 
0.351512 -0.154720 0.923310 
-0.096876 0.386594 0.917148 
-0.236195 -0.424317 0.874166 
-0.689149 -0.184617 0.700706 
-0.023970 -0.123070 0.992108 
-0.381299 -0.027092 0.924055 
-0.142727 0.558297 0.817272 
0.115076 0.450236 0.885463 
-0.354135 0.089352 0.930916 
-0.038956 -0.215700 0.975682 
0.139530 0.564543 0.813525 
0.292774 -0.468154 0.833736 
0.264127 -0.159561 0.951198 
-0.446653 -0.202383 0.871517 
-0.196627 -0.024227 0.980179 
0.034296 -0.118413 0.992372 
0.180522 0.524480 0.832065 
-0.456413 -0.273331 0.846745 
-0.441455 -0.341683 0.829681 
-0.250655 0.344073 0.904868 
-0.107204 0.149912 0.982870 
0.388047 -0.391928 0.834154 
0.147062 0.324659 0.934328 
0.140332 -0.567036 0.811651 
-0.259154 0.289925 0.921294 
-0.504605 0.135412 0.852665 
0.080193 0.902191 0.423816 
-0.292449 0.192638 0.936677 
0.366379 -0.554928 0.746874 
0.401711 -0.804232 0.437995 
-0.230213 0.366514 0.901482 
-0.456998 -0.559885 0.691146 
-0.270029 0.009559 0.962805 
-0.087994 0.065818 0.993944 
-0.223057 -0.462634 0.858030 
-0.172532 -0.352631 0.919720 
0.073625 -0.408636 0.909723 
0.011871 0.275619 0.961194 
-0.285356 -0.247077 0.926027 
0.246284 -0.008719 0.969158 
-0.056683 0.338096 0.939403 
0.163670 0.183419 0.969314 
-0.151190 -0.590978 0.792393 
-0.168689 -0.547977 0.819308 
-0.377436 0.458965 0.804297 
-0.455979 0.550804 0.699069 
0.269068 -0.694822 0.666952 
-0.074937 -0.871502 0.484633 
0.675440 -0.552877 0.487963 
-0.281595 -0.144647 0.948568 
-0.448972 -0.103194 0.887567 
0.453008 -0.086725 0.887278 
0.319345 -0.133988 0.938118 
0.352272 -0.360386 0.863728 
-0.063692 0.352997 0.933454 
0.271144 -0.300461 0.914442 
0.076047 0.169276 0.982630 
-0.331966 0.232433 0.914206 
0.118120 0.050652 0.991707 
0.014475 0.918704 0.394681 
-0.201159 -0.510249 0.836171 
0.274012 0.069348 0.959223 
0.123706 -0.370547 0.920539 
-0.034395 -0.598200 0.800609 
-0.694209 0.152781 0.703372 
-0.698814 0.127082 0.703924 
0.027346 -0.558363 0.829146 
0.451243 0.338012 0.825910 
0.176832 -0.376298 0.909467 
-0.482648 0.439376 0.757628 
-0.008729 0.093176 0.995611 
0.813316 0.041361 0.580350 
-0.721242 -0.672130 0.167486 
0.252306 0.369988 0.894120 
0.371170 0.140710 0.917842 
-0.385449 -0.003688 0.922722 
-0.230630 0.045721 0.971967 
-0.183662 -0.562057 0.806449 
-0.410375 0.100524 0.906359 
0.429270 -0.121190 0.895009 
-0.244504 0.249482 0.937004 
-0.091071 0.076023 0.992938 
0.538932 0.343701 0.769040 
0.252259 -0.295136 0.921553 