# vtk DataFile Version 3.1
vtk output
ASCII
DATASET POLYDATA
POINTS 16583 float
0.345974 1.407635 -6.744186 
-1.737806 0.012700 -6.113849 
-2.667561 -0.095254 -5.585821 
-1.744432 -1.659377 -4.383486 
1.497359 -0.174645 -7.735419 
1.327298 -2.985934 -0.146335 
0.741677 1.771686 -5.498395 
-0.640494 1.940346 -5.166335 
-2.563555 -1.339922 -4.303985 
0.273986 2.217631 -4.348547 
-1.657388 -1.274347 -6.681404 
2.367610 2.197907 -2.917168 
1.456337 -3.020938 -0.146335 
-1.850594 -0.026150 -6.162613 
2.115552 0.304129 -4.522668 
-1.849238 -1.557183 -4.414577 
1.909107 -2.617497 -0.247123 
-2.095255 -2.041162 -1.899217 
1.333952 2.979818 -0.646721 
1.391405 -1.341707 -7.044872 
1.702324 -1.371203 -6.777668 
0.039390 3.252681 -0.291950 
0.641236 -2.031433 -5.019622 
-2.556389 -0.229105 -0.247709 
-1.761465 -0.407132 -7.581695 
-0.825120 -2.235384 -3.329704 
2.622702 0.556505 -5.079782 
-3.398561 -0.424410 -0.679711 
-3.104154 -0.049402 -3.258270 
0.373173 2.279162 -4.302395 
1.328608 -3.048839 -0.065355 
-0.706399 0.140515 -7.895478 
-2.991202 1.244832 -1.003312 
0.779041 1.897610 -5.433491 
0.385991 3.300114 -0.789695 
-1.680414 -0.115722 -6.091845 
-0.419434 -2.542648 -2.486217 
2.133386 -1.124249 -3.256962 
1.224741 1.402086 -5.975363 
0.132795 3.185688 -1.714530 
0.820576 -0.232289 -8.445334 
1.252184 2.502010 -5.124289 
-2.450956 0.868144 -5.252435 
2.529606 -1.529702 -1.207006 
-1.673312 1.427832 -4.592894 
2.156438 0.855788 -4.297727 
-1.728450 2.472265 -1.834450 
1.851930 -1.410471 -5.411144 
2.198110 0.298457 -4.444006 
-1.558860 0.183877 -6.477617 
-1.764787 -0.099000 -7.303850 
1.957216 0.724293 -5.001594 
2.203532 0.742626 -3.409499 
2.325082 0.840472 -4.798212 
1.668423 -1.300850 -5.016329 
-0.588584 2.104431 -4.963721 
-0.586465 -1.911068 -5.563182 
-1.543130 -0.525932 -6.726590 
-2.945623 -0.351393 -0.177675 
1.823274 2.648641 -0.368220 
-0.381084 -2.570125 -1.620836 
-2.740927 0.086546 -0.495402 
-1.403412 0.114811 -7.261763 
-1.569415 1.478869 -5.126047 
0.655665 -0.309370 -8.545952 
0.899681 2.956066 -3.790513 
-0.138635 1.301615 -7.416993 
0.465041 2.326375 -5.372207 
-1.341096 -2.748435 -1.377649 
2.495634 1.678063 -1.947832 
2.245932 -2.162422 -2.732365 
-1.793202 -0.154572 -6.140609 
-2.517337 0.808496 -4.481010 
0.907028 -2.017951 -6.047220 
-2.365566 0.967906 -4.429661 
-1.981078 -2.446352 -0.218112 
-0.062166 3.047242 -0.952832 
0.347749 2.567635 -0.262839 
-2.603417 -1.894355 -2.407812 
-1.210272 -2.808807 -3.671776 
0.881354 -2.457387 -0.488317 
0.758264 -3.025969 -2.160948 
1.302253 2.769587 -2.551485 
-2.784736 -0.875634 -3.902620 
-1.165235 -1.168119 -7.536163 
2.191513 -1.142104 -3.368100 
-1.877227 0.686442 -5.801764 
-1.568774 2.381704 -2.468730 
-1.970035 1.423707 -4.723233 
0.000454 3.102634 -0.292213 
2.384372 0.690134 -3.353106 
-1.938082 -0.567534 -6.808262 
-2.638421 -0.000393 -4.529123 
-2.618400 -1.432291 -2.116203 
2.249560 -1.558023 -3.285800 
0.962499 -0.037551 -7.735967 
0.128954 -0.920488 -8.202400 
-0.186558 2.900066 -1.975491 
1.407913 1.889936 -4.100252 
0.195865 2.551215 -3.933993 
-2.783455 1.068910 -1.082991 
-3.178597 -0.193058 -1.060256 
-3.257685 0.173300 -0.620651 
-2.379371 1.126103 -1.074526 
-2.521432 -0.808410 -4.793032 
0.540171 -0.121791 -8.236169 
0.938258 -0.243467 -7.907294 
-1.616768 2.236738 -2.499484 
1.989483 1.207059 -5.685799 
-0.118554 -3.005309 -2.538166 
-1.292079 1.353190 -5.699109 
-1.548322 -2.310716 -0.153837 
2.183913 -0.449791 -4.411320 
-2.776346 -0.125812 -4.598853 
-2.515790 -0.320612 -5.275031 
-1.715200 -1.071321 -5.574237 
-1.704596 0.335962 -6.264319 
-1.395017 -0.544137 -7.545786 
-2.792836 0.018856 -3.181712 
-1.737740 -0.279625 -6.387727 
-1.708742 2.594026 -2.534163 
2.388489 -1.576041 -1.207138 
2.249721 -0.143457 -4.939853 
-0.476265 -2.282002 -5.777763 
-1.487071 -2.112933 -2.976619 
-0.923495 2.032594 -4.967298 
-1.349896 -2.402110 -2.610695 
-2.406222 -1.020062 -4.769859 
-2.212146 0.035089 -5.091529 
-2.854395 -0.138157 -0.235213 
-2.726550 0.083856 -3.043250 
-2.323329 -1.757270 -0.542800 
-0.382013 -1.738266 -6.316623 
-1.775957 1.808657 -4.080825 
-1.331181 -0.070730 -7.787120 
1.461645 1.855283 -3.974381 
-0.336603 -1.685427 -6.164879 
-1.791431 2.785108 -0.521463 
2.539442 0.910633 -3.054877 
-1.554532 -2.277528 -2.742045 
-2.735694 -0.215995 -1.168892 
2.503501 2.046293 -0.289414 
1.812922 2.520341 -2.852373 
-1.663521 2.690159 -0.441011 
-1.479718 1.276564 -6.156868 
-2.823675 0.017354 -2.962572 
1.331081 -1.812226 -5.246867 
-0.803059 -2.599191 -2.821289 
-2.361548 -0.736636 -4.440156 
1.382164 1.801580 -4.840686 
2.329216 0.602386 -3.892413 
0.588451 2.451525 -4.389601 
0.467190 2.243015 -4.429910 
-2.800822 0.031355 -0.390868 
0.978690 2.121878 -4.141035 
1.623493 2.639234 -2.988845 
-1.757791 1.431974 -4.711795 
-2.262410 1.858394 -2.812474 
-2.563758 -1.367802 -2.233669 
-1.438798 -0.502017 -6.856278 
1.623892 -1.233088 -6.535690 
0.929021 -1.380173 -6.553307 
-0.396746 2.452367 -4.362602 
-1.507691 1.160483 -5.818301 
-1.859093 -1.104628 -4.900414 
1.719597 2.409918 -2.949435 
0.833289 -0.342322 -7.874204 
-0.007436 0.240288 -8.208305 
-0.150078 2.371517 -6.022075 
0.471330 3.229055 -1.380884 
2.736486 -0.899598 -2.230218 
-1.647498 2.451136 -2.338345 
0.053734 -0.895097 -8.381626 
-0.272281 2.982846 -1.868933 
2.298995 -1.502550 -3.992613 
-0.854241 1.924996 -5.145132 
0.277753 3.149919 -1.354870 
-2.612839 0.699422 -2.786932 
-2.131203 -0.631810 -6.542392 
-2.203708 1.093594 -5.501574 
0.731141 -1.567037 -6.410244 
0.692923 -0.263461 -7.858977 
2.695545 -0.680597 -3.171848 
-1.910517 1.947042 -4.015100 
-0.350583 2.506730 -4.502078 
1.455182 2.483265 -1.257040 
0.949633 2.858814 -1.930049 
2.221283 -0.552454 -4.510023 
2.368715 -0.575970 -4.536349 
-1.538468 -2.276150 -3.030238 
-2.416584 -0.908483 -4.873246 
-2.611717 0.706529 -2.929974 
-2.106183 1.059907 -5.616266 
-2.609327 -0.959395 -3.643865 
-1.665950 0.569278 -6.344524 
-0.288225 -1.832529 -6.102544 
1.452534 -2.873026 -1.354300 
0.387427 3.235148 -0.178607 
1.206106 -2.381841 -2.538391 
0.365808 -2.539384 -2.442305 
-2.148679 1.742239 -2.659444 
1.905201 1.007382 -4.404953 
1.895729 1.157224 -4.373313 
-2.130290 2.345780 -0.270650 
-2.661223 -0.236851 -1.053969 
2.450327 1.832697 -0.123864 
0.828033 3.093380 -0.580698 
0.467874 3.204017 -1.503431 
-0.421234 -0.961508 -8.260816 
-0.267028 2.132601 -5.397463 
-0.238299 2.893144 -1.772146 
-0.976724 -3.126291 -0.474629 
-2.238714 1.473616 -1.658990 
2.934832 -0.423462 -1.251365 
2.380448 -1.983518 -0.328708 
2.290473 -1.966178 -0.087249 
1.588447 2.498299 -3.036129 
-0.851401 2.627438 -1.910117 
-2.156925 1.490374 -2.488868 
0.870723 2.326937 -4.099112 
2.405871 -1.697601 -4.163897 
2.013635 0.733896 -4.434483 
-3.389895 -0.106181 -1.017460 
2.899815 -0.611173 -1.116873 
0.546045 0.015128 -8.088541 
2.980026 -0.441617 -1.523861 
1.163477 2.109334 -5.005796 
1.046031 2.334131 -5.142330 
0.586729 3.125912 -1.357690 
-1.119180 -3.082570 -0.497705 
1.500165 -1.123780 -6.499947 
0.151275 -2.965724 -2.606496 
2.652679 -1.060702 -2.358589 
-1.835560 2.400772 -1.860570 
2.164944 0.346324 -5.452781 
2.241559 -0.061091 -4.811989 
-0.230691 0.790512 -7.873026 
-0.073216 3.263372 -0.189778 
-2.010663 2.237105 -0.184556 
1.958174 1.270694 -6.079886 
1.544803 -1.675949 -5.492348 
0.719231 -1.486927 -6.632852 
-2.774663 0.518752 -2.792795 
0.849758 -0.084368 -7.858045 
1.058338 -0.290048 -7.771775 
3.026446 -0.369493 -1.357715 
-0.240377 -0.555286 -8.408543 
-1.829019 -0.983902 -6.704908 
-2.643320 -0.828690 -3.722560 
-2.374573 -0.915622 -4.050874 
-1.899592 -0.237083 -6.332417 
-0.229573 -1.103026 -8.187902 
0.788425 -2.694529 -4.388464 
2.128564 0.707671 -4.337736 
-1.840304 -0.990972 -6.445194 
0.781586 2.824570 -1.941005 
1.501407 2.553547 -1.394082 
-1.513150 -0.095349 -7.621976 
1.406603 2.629118 -1.188545 
-0.947844 -3.044838 -0.622237 
-1.941633 1.810371 -4.826335 
-3.233916 0.008059 -1.055622 
1.452732 1.988057 -3.907477 
-1.076600 -2.268217 -3.969907 
-0.425252 -2.155211 -5.684489 
1.053519 -1.446198 -6.263429 
-0.746683 -0.805149 -7.752781 
0.005408 2.380553 -3.981873 
-1.636816 -0.612158 -6.822785 
-2.783139 -0.973175 -3.606207 
0.077305 2.621422 -4.024455 
-0.841858 -2.929213 -0.315134 
-1.940622 -0.938712 -6.618137 
-1.373429 -0.812553 -6.452411 
0.583273 3.100873 -1.480238 
-2.446864 -0.350063 -5.534508 
-1.766014 0.346723 -6.388941 
2.547339 0.143228 -4.881523 
1.861658 1.453766 -5.580177 
-1.500580 0.982410 -6.264976 
-2.270252 1.723779 -2.763917 
1.431945 -1.376686 -6.638700 
-1.563273 -2.352127 -2.886032 
-2.208995 -0.704808 -4.416296 
-2.214001 2.317171 -0.176708 
0.033315 -3.001416 -2.500056 
-2.718377 0.637543 -3.019412 
1.383645 -2.710785 -1.409230 
-2.264972 1.613522 -2.478832 
-2.667037 0.574981 -2.723688 
-1.609384 0.457157 -6.265946 
1.108037 1.959781 -4.972205 
1.599720 2.206011 -5.169335 
1.746394 0.923675 -5.353993 
0.379781 3.080088 -0.174787 
2.358686 -1.879053 -0.208141 
-0.020545 2.469882 -6.025715 
0.058715 3.161625 -2.807198 
-2.323640 -1.039392 -3.977654 
2.796340 -0.630864 -1.232829 
1.773046 1.381776 -5.872696 
-0.903980 -0.655026 -7.543298 
1.862697 1.167679 -6.429253 
2.084540 0.287074 -5.328786 
-2.013815 1.641248 -5.010671 
-0.849047 2.189919 -5.149788 
1.847713 1.348330 -6.489882 
-2.660461 -0.204137 -5.398203 
-2.063134 -1.289434 -5.517625 
1.328840 0.347670 -7.717821 
0.726255 -1.202365 -7.074778 
-1.564198 -1.112837 -5.565736 
-2.006849 -1.620049 -0.477322 
0.718601 0.143806 -7.945322 
-0.047628 2.526712 -4.020636 
0.742754 0.920072 -7.421206 
-0.152575 2.810364 -1.878703 
0.597561 0.220892 -8.192105 
0.959028 -0.238836 -7.514055 
-0.057256 -1.075837 -8.229064 
0.391668 0.967349 -7.437937 
0.008383 2.415171 -5.856146 
-1.383138 1.374111 -5.824590 
0.692665 -0.125479 -7.809749 
1.057585 -0.127314 -7.586379 
-1.345109 1.290679 -6.078580 
2.529102 0.707975 -3.910070 
-1.649790 1.179748 -5.871423 
1.777234 1.166485 -6.276356 
2.617750 0.137614 -4.737803 
[...]
POINT_DATA 16583 
VECTORS    Normal    double 
0.784924 -0.420113 -0.455412 
0.172198 0.877888 -0.446834 
-0.234827 0.694446 0.680148 
-0.643535 0.738427 -0.201468 
0.162217 -0.912649 0.375177 
-0.796639 -0.357452 0.487437 
0.739737 -0.466404 -0.485032 
0.877412 0.162377 -0.451421 
-0.486308 0.680314 0.548340 
0.864876 -0.202170 -0.459474 
-0.688819 0.592111 0.418249 
0.550769 -0.456821 0.698547 
-0.708143 -0.345675 0.615664 
0.087049 0.959888 -0.266529 
0.004641 -0.844972 -0.534791 
-0.604808 0.776710 -0.175867 
-0.720637 -0.531413 0.445290 
-0.699979 0.711907 0.056734 
0.798097 -0.342231 0.495902 
-0.452816 -0.782322 0.427702 
-0.259838 -0.755337 0.601623 
0.884412 -0.004895 0.466682 
-0.904026 -0.181311 -0.387122 
-0.068374 0.824559 -0.561630 
-0.525151 0.592952 0.610430 
-0.783151 0.366897 -0.502057 
0.308104 -0.808378 0.501594 
-0.106425 0.680346 0.725123 
-0.101367 0.801450 0.589409 
0.901201 -0.224314 -0.370837 
-0.749625 -0.328423 0.574632 
0.470056 0.847490 -0.246592 
0.318697 0.819266 0.476692 
0.829528 -0.446861 -0.334961 
0.804608 -0.073948 0.589184 
0.135118 0.841058 -0.523799 
-0.901700 0.190188 -0.388285 
-0.468135 -0.742372 -0.479305 
0.617844 -0.703882 -0.350454 
0.887509 -0.002606 0.460783 
0.140916 -0.948074 0.285129 
0.715839 -0.152799 0.681342 
0.176845 0.876036 0.448650 
-0.515743 -0.856108 0.032983 
0.654939 0.618172 -0.434648 
0.275637 -0.892357 -0.357383 
0.794266 0.574410 0.197977 
-0.583997 -0.807421 0.083775 
0.023641 -0.890706 -0.453965 
0.299890 0.832045 -0.466655 
-0.267941 0.884284 0.382426 
0.199383 -0.869411 -0.452074 
0.185319 -0.809336 -0.557344 
0.351468 -0.934726 0.052509 
-0.639940 -0.650905 -0.408410 
0.927998 0.173006 -0.329984 
-0.856887 0.375948 -0.352716 
-0.207354 0.949987 -0.233514 
-0.118465 0.992957 0.001539 
0.755093 -0.511995 0.409506 
-0.873634 0.160300 -0.459421 
0.036453 0.942611 -0.331898 
0.163353 0.977059 -0.136642 
0.709624 0.632870 -0.309691 
0.023965 -0.964693 0.262285 
0.720234 -0.089550 0.687927 
0.990960 0.016000 -0.133201 
0.978290 -0.154706 0.137894 
-0.883195 0.416884 0.214884 
0.560710 -0.804000 0.197960 
-0.552929 -0.663557 0.503946 
0.051169 0.935199 -0.350406 
0.253113 0.943405 0.214291 
-0.851200 -0.472580 0.228312 
0.367949 0.928452 0.050901 
-0.743639 0.598668 0.297655 
0.986153 0.026718 0.163671 
0.837765 -0.119075 -0.532889 
-0.520819 0.606088 0.601169 
-0.758336 0.210372 0.616985 
-0.815620 -0.282070 -0.505173 
-0.874013 -0.259237 0.410971 
0.854231 -0.353914 0.380834 
-0.346909 0.811528 0.470187 
-0.802841 0.443054 0.398935 
-0.477107 -0.793471 -0.377852 
0.407323 0.881045 -0.240517 
0.833366 0.552153 0.025082 
0.593670 0.803478 -0.044490 
0.974345 0.002633 0.225045 
0.206118 -0.907607 -0.365738 
-0.429220 0.812043 0.395420 
-0.050234 0.973603 0.222653 
-0.486474 0.853941 0.184739 
-0.568507 -0.822650 0.006928 
-0.236495 -0.946413 -0.219939 
-0.933474 -0.320239 0.161472 
0.997089 0.067202 0.036017 
0.704233 -0.610974 -0.361616 
0.989857 -0.095444 -0.105230 
0.354993 0.932634 0.064606 
-0.073560 0.916474 0.393274 
0.033246 0.870521 0.491007 
0.398792 0.796464 -0.454543 
-0.364800 0.867697 0.337672 
-0.288099 -0.956794 -0.039301 
-0.308714 -0.949170 -0.061415 
0.812244 0.571526 -0.116697 
0.564647 -0.795994 0.218099 
-0.956152 0.004776 0.292831 
0.733498 0.494343 -0.466483 
-0.795901 0.535437 -0.282577 
-0.271622 -0.851698 -0.448144 
-0.148692 0.868239 0.473342 
-0.217670 0.907869 0.358320 
-0.418106 0.852160 -0.314658 
0.319626 0.872859 -0.368723 
-0.483325 0.849097 0.213146 
-0.003943 0.997225 0.074346 
-0.044046 0.962855 -0.266401 
0.716399 0.532802 0.450438 
-0.551876 -0.825623 -0.117387 
-0.121273 -0.963891 -0.237080 
-0.956214 0.108016 0.272006 
-0.758133 0.580715 -0.296655 
0.904484 0.338722 -0.259183 
-0.861159 0.497529 -0.104259 
-0.435487 0.857805 0.272987 
0.078861 0.967434 -0.240526 
-0.046026 0.984656 -0.168325 
0.039130 0.997282 -0.062431 
-0.600204 0.796340 -0.074815 
-0.906984 0.314186 -0.280476 
0.723301 0.683396 -0.099023 
-0.215026 0.953251 0.212311 
0.677850 -0.624586 -0.387830 
-0.829054 0.337534 -0.445802 
0.688829 0.458012 0.561907 
0.321807 -0.940668 -0.107633 
-0.818285 0.569679 -0.076648 
-0.060958 0.953135 -0.296340 
0.573683 -0.693364 0.436044 
0.736018 -0.448980 0.506650 
0.800500 0.502207 0.327090 
0.681101 0.723014 -0.115551 
-0.003853 0.997142 0.075458 
-0.819408 -0.560656 -0.119309 
-0.944065 0.307212 -0.119840 
-0.280555 0.956617 -0.078561 
0.729636 -0.636572 -0.249815 
0.174045 -0.921431 -0.347382 
0.971190 -0.237482 -0.019831 
0.895233 -0.264470 -0.358628 
0.014843 0.968056 -0.250295 
0.807164 -0.453065 -0.378442 
0.760009 -0.383806 0.524479 
0.655178 0.692854 -0.301156 
0.598801 0.771500 0.215001 
-0.475720 0.876501 0.073727 
-0.174360 0.941299 -0.289058 
-0.497428 -0.830670 0.250106 
-0.857471 -0.418192 -0.299764 
0.986111 0.140586 -0.088431 
0.659495 0.654029 -0.370556 
-0.387320 0.837791 -0.384823 
0.799461 -0.521897 0.297465 
-0.510588 -0.846953 -0.148224 
0.958796 -0.272922 -0.078888 
0.856157 0.220137 0.467476 
0.835849 -0.089256 0.541655 
-0.309199 -0.950457 0.032062 
0.808295 0.564076 0.168751 
-0.871866 -0.406235 0.273537 
0.980476 0.103046 0.167474 
-0.498445 -0.838808 0.218983 
0.883245 0.282661 -0.374141 
0.922378 -0.058993 0.381757 
0.273331 0.950031 -0.150769 
-0.444150 0.727068 0.523548 
0.323066 0.882854 0.340877 
-0.910297 -0.288972 -0.296404 
-0.611701 -0.744637 -0.267092 
-0.237393 -0.970066 0.051145 
0.673324 0.713087 0.195296 
0.988561 0.146390 0.036292 
0.857146 -0.507614 -0.087350 
0.934307 -0.292425 0.203856 
-0.298048 -0.893172 -0.336764 
-0.257127 -0.960965 -0.102137 
-0.825438 0.563465 -0.034034 
-0.400131 0.878166 0.262142 
0.274319 0.953939 -0.121449 
0.370809 0.899078 0.232721 
-0.367139 0.914163 0.171800 
0.418466 0.860237 -0.291339 
-0.921477 0.254617 -0.293344 
-0.773883 -0.422196 0.472076 
0.875102 -0.101166 0.473247 
-0.876181 -0.413378 -0.247841 
-0.907822 -0.088089 -0.410000 
0.634920 0.768606 -0.078241 
0.288441 -0.787722 -0.544331 
0.373813 -0.799479 -0.470210 
0.695650 0.636900 0.332309 
-0.063829 0.912447 -0.404187 
0.592561 -0.790931 0.152644 
0.889838 -0.228067 0.395188 
0.852505 -0.090555 0.514815 
-0.949774 0.048097 0.309219 
0.976579 0.061771 -0.206102 
0.996586 0.082436 0.004624 
-0.826389 0.247421 0.505830 
0.535519 0.770335 -0.346126 
-0.139931 -0.988827 0.051392 
-0.622256 -0.751526 0.219102 
-0.648753 -0.756233 0.085030 
0.823013 -0.471759 0.316376 
0.937008 0.286728 -0.199508 
0.565542 0.757744 -0.325555 
0.910315 -0.376298 -0.172415 
-0.367085 -0.724936 0.582852 
0.174353 -0.816059 -0.551044 
-0.053146 0.714694 0.697415 
-0.204347 -0.978170 0.037757 
-0.227944 -0.961703 -0.152216 
-0.134844 -0.978690 0.154865 
0.879340 -0.474982 0.033954 
0.892906 -0.300492 0.335297 
0.899978 -0.144446 0.411309 
-0.810588 0.282674 0.512876 
-0.608360 -0.793213 -0.026666 
-0.966898 -0.077436 0.243129 
-0.369876 -0.928970 0.014355 
0.766234 0.607123 0.210447 
0.123464 -0.985804 -0.113787 
-0.098730 -0.948114 -0.302211 
0.977101 0.054243 -0.205747 
0.875538 0.023554 0.482574 
0.741647 0.667287 0.068469 
0.614437 -0.658228 0.434975 
-0.725526 -0.686787 0.043995 
-0.913577 -0.307853 -0.265714 
0.178973 0.983103 0.038427 
-0.300013 -0.933186 -0.197880 
-0.314199 -0.947361 -0.061527 
-0.107412 -0.974338 0.197806 
-0.971271 0.213847 0.104415 
-0.584936 0.698142 0.412854 
-0.323733 0.929336 0.177571 
-0.341745 0.935275 -0.092037 
-0.095027 0.992890 -0.071690 
-0.936483 -0.137075 0.322816 
-0.827044 -0.342519 0.445734 
0.192149 -0.871532 -0.451122 
-0.551473 0.788653 0.271852 
0.962893 -0.260262 0.071417 
0.862284 -0.502920 0.059486 
-0.260910 0.918262 0.297860 
0.881110 -0.467246 0.072986 
-0.887823 0.265950 0.375553 
0.567651 0.739631 0.361550 
-0.019169 0.881940 0.470972 
0.750506 -0.607014 -0.261296 
-0.876251 0.450874 -0.169991 
-0.981495 0.191360 0.007049 
-0.834570 -0.463582 -0.297630 
-0.684579 0.724776 -0.077784 
0.930508 -0.068418 -0.359825 
-0.351488 0.936189 0.002639 
-0.365516 0.822895 0.435020 
0.999382 -0.024694 0.025015 
-0.952695 0.271935 0.135735 
-0.556836 0.682773 0.473028 
-0.280826 0.848536 -0.448468 
0.912087 -0.146691 0.382857 
-0.243553 0.894583 0.374703 
0.271697 0.939499 -0.208619 
0.108693 -0.970356 0.215859 
0.652799 -0.724408 0.221556 
0.615750 0.732377 -0.290647 
0.595252 0.799742 0.078019 
-0.594324 -0.768694 0.236408 
-0.835572 0.546094 0.060005 
-0.221376 0.919978 -0.323470 
0.664052 0.638528 0.388996 
-0.960258 -0.041162 0.276061 
0.223426 0.974048 0.036211 
-0.868421 -0.456357 0.193865 
0.585601 0.805908 -0.087080 
0.223704 0.966464 -0.126108 
0.409912 0.792246 -0.452015 
0.817162 -0.528952 -0.229031 
0.730487 -0.327288 0.599392 
0.289681 -0.833643 -0.470239 
0.967365 -0.117611 0.224438 
-0.620473 -0.779989 0.081423 
0.768354 0.218754 0.601481 
0.809445 0.059134 0.584210 
-0.386285 0.915399 -0.113264 
-0.224199 -0.968594 -0.107518 
0.652977 -0.733466 0.188807 
-0.409118 0.879549 -0.242933 
0.617944 -0.661233 0.425342 
0.044167 -0.951931 -0.303111 
0.520804 0.781147 0.344344 
0.932560 0.361009 -0.001899 
0.650848 -0.487151 0.582307 
-0.236353 0.758349 0.607490 
-0.580950 0.754563 0.305176 
0.389634 -0.898569 0.201888 
-0.891754 -0.350769 -0.285895 
-0.394255 0.796021 -0.459254 
-0.519341 0.659722 -0.543186 
-0.049184 -0.979103 -0.197327 
0.991575 -0.005812 -0.129405 
0.611881 -0.741418 -0.275503 
0.991474 0.044047 -0.122630 
0.288790 -0.956596 -0.039054 
-0.509000 -0.768664 -0.387395 
-0.909039 -0.279003 0.309524 
0.691538 -0.601373 -0.400156 
0.884782 0.145915 0.442571 
0.739846 0.601665 -0.301045 
-0.526688 -0.784795 -0.326645 
-0.315875 -0.913304 -0.257096 
0.735211 0.611145 -0.293202 
0.268905 -0.963159 -0.003737 
0.617678 0.769924 -0.160287 
0.605435 -0.763537 0.224631 
0.115879 -0.954913 0.273339 
0.166977 -0.964677 0.203759 
0.944485 0.148379 0.293140 
-0.943420 -0.315356 -0.102516 
0.863139 -0.429648 -0.265319 
-0.839624 -0.331414 -0.430344 
0.876183 -0.383792 -0.291560 
-0.493050 -0.825658 -0.274210 
-0.508916 -0.829109 -0.231478 
0.804706 -0.550954 -0.221129 
-0.930651 -0.082592 0.356464 
0.393279 0.854473 -0.339422 
-0.927093 -0.083358 0.365444 
-0.873228 -0.236607 0.426016 
-0.802419 -0.442295 0.400624 
0.885006 0.020282 0.465137 
0.750401 0.651354 -0.112412 
-0.957585 -0.180780 0.224387 
-0.921195 0.386254 -0.046989 
-0.879881 -0.466355 -0.091223 
0.582465 -0.713980 0.388545 
-0.866929 -0.248040 -0.432332 
-0.423352 -0.851431 -0.309578 
-0.426053 -0.790427 0.440118 
0.623198 -0.723823 -0.296151 
-0.825455 -0.548282 -0.134203 
-0.209762 -0.940159 -0.268516 
0.436620 -0.869418 0.231246 
0.092051 0.976481 -0.194967 
0.934775 0.348863 -0.067016 
0.600434 0.795664 -0.079986 
0.033405 0.952053 -0.304105 
0.934199 0.318693 -0.160336 
-0.046380 0.975288 0.216015 
0.774307 -0.581398 -0.249851 
0.632223 0.710166 0.309771 
-0.774450 -0.598156 -0.206002 
-0.838562 -0.530266 -0.125026 
0.760803 -0.458442 0.459358 
-0.507484 0.647253 0.568791 
0.952991 0.005750 -0.302943 
0.921871 0.052365 -0.383941 
-0.980609 0.153014 -0.122447 
-0.840489 -0.260464 0.475118 
0.394974 -0.906074 -0.151740 
-0.964724 -0.146065 -0.219026 
0.202904 -0.971815 -0.120026 
-0.159697 0.874406 -0.458161 
-0.369273 -0.919033 -0.137900 
0.471611 -0.769759 -0.430178 
0.976481 -0.079602 0.200369 
-0.404532 0.860537 -0.309565 
-0.513049 0.725404 0.458879 
0.038991 0.958891 -0.281083 
0.970240 -0.206128 -0.127062 
0.337312 0.877932 -0.339787 
0.391795 0.909589 -0.138361 
-0.720118 -0.313934 0.618769 
0.930064 0.361811 -0.063835 
0.948316 0.259022 -0.183315 
-0.078865 -0.949106 -0.304923 
-0.022718 0.969009 -0.245980 
-0.795356 0.500530 -0.341874 
-0.939544 -0.219595 0.262746 
0.966262 -0.207111 -0.153109 
-0.763976 0.595307 0.248897 
0.244112 0.969239 0.031402 
-0.140574 0.972814 0.184046 
-0.896231 -0.008049 0.443515 
0.683399 -0.590313 0.429530 
0.796443 0.593560 -0.115611 
0.743454 0.606607 -0.281609 
0.865689 -0.498919 0.040759 
0.683922 0.561092 -0.466290 
0.398342 0.911425 -0.103095 
0.437982 0.853770 -0.281512 
-0.800784 -0.518193 -0.300368 
0.246568 0.953278 0.174543 
-0.731480 -0.680694 0.039912 
-0.319832 -0.939266 0.124447 
-0.264107 0.907090 -0.327774 
-0.822419 -0.250841 0.510594 
-0.838234 -0.477815 -0.262786 
0.654250 -0.643389 0.397501 
0.888370 0.058139 -0.455433 
-0.278888 0.792689 -0.542094 
-0.816854 -0.488939 -0.306084 
0.625666 -0.595190 0.504273 
0.379919 0.848299 -0.368850 
-0.252877 -0.963640 -0.086314 
-0.190752 -0.981295 0.025944 
0.259406 0.943917 0.204277 
0.123749 -0.881154 -0.456348 
-0.578157 -0.815117 0.036320 
0.284701 0.875442 -0.390571 
0.670616 0.740165 -0.049300 
0.505686 0.795107 -0.334792 
-0.983287 -0.155264 -0.095079 
0.818972 -0.234241 0.523847 
0.924064 -0.078512 0.374088 
0.938404 0.095284 -0.332144 
0.639949 -0.495518 0.587306 
0.700526 0.650178 -0.294165 
0.931667 0.086764 -0.352801 
0.632879 0.768701 -0.092537 
0.984951 0.124983 -0.119374 
-0.043099 -0.979738 -0.195593 
0.866224 0.324969 -0.379539 
-0.114703 0.950091 -0.290120 
0.611363 0.717687 -0.333409 
0.763935 0.448010 -0.464424 
-0.866174 -0.487023 -0.112031 
0.869368 0.400282 -0.289782 
0.010147 -0.992256 -0.123791 
0.673161 0.738136 0.044843 
-0.797702 -0.508720 -0.323845 
0.654781 0.478912 0.584727 
0.718206 0.541694 0.436747 
0.784532 0.619871 0.016408 
-0.971973 0.149900 0.181102 
-0.583626 0.770653 0.255880 
-0.517669 -0.834115 0.190449 
0.956038 0.288413 -0.053007 
0.629798 0.745911 0.216729 
-0.423835 0.843500 0.329957 
-0.140722 -0.852951 -0.502665 
0.619502 -0.784008 0.039350 
0.296892 -0.835408 -0.462546 
0.614614 -0.646126 0.452515 
0.840077 0.534808 0.090837 
0.864467 -0.450991 0.222045 
0.214157 -0.856733 -0.469196 
-0.540616 0.763132 0.354068 
-0.012136 0.877070 0.480209 
0.647112 0.760623 -0.051959 
0.314133 0.831948 -0.457365 
0.939615 0.341849 -0.016237 
0.014889 0.978875 0.203917 
-0.793368 -0.385358 0.471240 
0.828702 -0.180063 0.529934 
0.802850 0.548137 0.234474 
0.890746 0.271372 -0.364595 
0.046505 0.968418 -0.244959 
0.719505 0.682985 0.125870 
-0.079785 0.961536 -0.262837 
0.868505 -0.112645 0.482712 
-0.540068 0.722918 -0.430949 
0.328254 0.940065 -0.092340 
-0.308717 0.884443 -0.349935 
0.710862 0.530681 0.461577 
-0.890662 -0.411905 0.192499 
0.731181 0.498846 0.465325 
0.932259 0.335961 0.134249 
-0.053361 0.812939 0.579898 
-0.516472 0.855546 0.036030 
-0.909163 -0.385809 -0.156761 
0.683943 0.557034 0.471100 
0.880137 -0.004038 -0.474702 
-0.648442 -0.727064 0.225614 
-0.960071 0.265734 0.087458 
0.621794 0.518188 0.587242 
-0.065909 -0.876236 -0.477354 
0.307530 0.923970 0.227385 
0.423236 -0.855608 -0.298005 
-0.543482 0.711778 -0.444971 
-0.549868 0.827982 -0.109961 
-0.776155 -0.594908 -0.208967 
0.619604 0.637290 -0.458205 
0.484946 0.868077 -0.106161 
0.715420 0.691688 -0.098699 
0.569355 -0.822013 0.011322 
0.517838 -0.491412 0.700255 
-0.249161 0.895450 -0.368901 
0.316941 0.944333 0.088222 
0.263495 0.903920 0.336896 
0.854398 0.246856 -0.457238 
0.304346 0.952350 0.020099 
0.136905 0.960507 -0.242244 
-0.107791 -0.900265 0.421786 
-0.531096 0.824774 0.194124 
0.879880 -0.062907 0.471014 
0.911624 0.303361 -0.277333 
0.173730 0.969609 0.172268 
-0.427999 -0.789118 0.440579 
-0.107092 0.882772 0.457433 
-0.435457 0.847604 0.303225 
0.025263 0.963037 -0.268183 
-0.917500 -0.312991 0.245418 
0.609680 -0.681959 0.404008 
0.800895 -0.535730 0.267509 
-0.556643 0.765993 -0.321563 
0.593995 -0.776211 0.211343 
-0.774901 0.487986 -0.401744 
-0.961867 0.194503 -0.192303 
0.969037 0.036869 0.244147 
-0.800231 -0.372717 -0.469800 
-0.836414 -0.458764 -0.299911 
0.614721 0.707169 0.349327 
-0.635254 0.736058 0.233818 
-0.762034 0.557371 -0.329610 
-0.797141 0.563896 -0.215841 
0.551800 -0.602953 0.576164 
0.806401 0.002351 0.591365 
-0.896575 -0.075888 0.436343 
-0.955574 0.294703 0.005433 
-0.577449 0.788536 0.211574 
0.544069 0.453652 0.705825 
-0.945044 0.241430 0.220460 
-0.772422 0.482429 -0.413069 
-0.852859 0.520299 0.043819 
-0.078004 -0.914517 -0.396956 
0.722276 -0.114669 0.682033 
0.833282 -0.316397 -0.453358 
-0.355781 -0.853185 -0.381438 
-0.970856 0.206994 -0.120798 
-0.093478 -0.937013 -0.336554 
-0.190181 -0.978418 -0.080798 
-0.737235 -0.560620 -0.377080 
-0.964072 0.230253 -0.132472 
0.853708 -0.415465 -0.313961 
-0.497928 0.755115 0.426461 
0.525326 0.844582 -0.103509 
-0.096849 0.966113 0.239262 
-0.378551 0.793426 -0.476628 
-0.498121 0.863882 -0.074725 
0.598514 -0.777088 0.194718 
0.673342 -0.620592 0.401841 
0.944403 -0.105877 -0.311275 
0.830325 -0.491444 -0.262760 
-0.114045 0.938450 0.326044 
-0.044827 0.994156 0.098203 
-0.107509 -0.859950 -0.498927 
0.400074 -0.875864 -0.269822 
-0.005034 0.983664 0.179944 
-0.600636 0.766449 0.227578 
0.032962 -0.951211 -0.306777 
-0.569860 0.664582 0.483312 
0.771385 -0.417005 -0.480699 
-0.545414 0.590520 0.594819 
0.905684 -0.302632 -0.296903 
-0.900628 0.370702 0.226826 
0.657064 -0.581054 -0.480253 
0.005344 0.795020 0.606560 
-0.519307 0.801902 -0.295422 
0.321078 -0.938493 -0.127043 
-0.419574 0.882326 -0.213209 
0.292724 -0.891710 -0.345204 
-0.414313 0.852225 -0.319463 
-0.397982 0.851748 0.340788 
-0.263805 0.960666 -0.086761 
-0.306404 0.902063 -0.303971 
-0.922677 0.364475 -0.125801 
0.931649 0.050061 -0.359894 
0.589785 -0.547427 0.593697 
0.388408 0.912389 -0.129171 
0.586259 -0.803564 -0.102884 
0.746962 -0.186044 0.638307 
0.987860 0.091600 -0.125469 
-0.414452 0.868179 0.272936 
-0.899818 -0.409368 -0.150818 
-0.027665 -0.997440 -0.065947 
-0.708675 0.507180 -0.490457 
-0.357191 0.922299 0.147579 
-0.112467 0.988850 -0.097604 
0.408556 0.909566 -0.075976 
-0.113049 0.925575 0.361291 
0.837321 0.299105 -0.457634 
0.910298 -0.320449 -0.262051 
0.815186 0.552364 0.174261 
-0.800698 -0.057800 0.596273 
-0.323685 -0.945722 -0.028947 
0.603868 0.741821 -0.291625 
-0.708460 0.545548 -0.447729 
-0.880448 0.304422 -0.363509 
-0.871740 0.305493 0.383071 
-0.116900 0.910685 -0.396217 
-0.203209 0.901298 0.382581 
-0.460265 0.858400 -0.226509 
-0.968355 0.249464 0.007549 
-0.896332 0.255497 -0.362369 
0.429926 0.778729 -0.456886 
-0.095703 -0.882213 0.461022 
-0.786843 0.509521 -0.348233 
0.051276 0.974706 0.217531 
-0.084641 -0.811755 0.577832 
-0.043659 -0.877579 -0.477441 
-0.941899 -0.254863 0.218793 
-0.878531 0.283597 -0.384391 
0.774921 0.608628 0.170495 
-0.188632 -0.975876 -0.109926 
0.337889 0.761410 -0.553251 
-0.633353 0.768204 -0.093412 
-0.706643 0.702227 -0.086795 
0.548899 -0.719422 0.425607 
0.629515 -0.754934 0.183808 
-0.893977 0.060018 0.444076 
0.921332 0.298727 -0.248818 
-0.974617 0.065318 0.214141 
0.528824 0.840789 -0.115836 
0.833149 -0.182560 0.522048 
0.989112 -0.019387 -0.145885 
0.348560 0.933589 -0.083176 
-0.923602 -0.119578 0.364227 
-0.900010 -0.258375 0.351032 
0.348622 0.895941 -0.275232 
-0.407052 0.822535 0.397171 
0.333272 0.939068 0.084146 
-0.629481 0.769656 -0.106693 
-0.391988 0.848474 0.355579 
-0.976517 0.183542 -0.112815 
-0.940492 -0.331889 -0.072965 
0.956537 0.276972 -0.091234 
-0.926694 0.317676 -0.200801 
-0.045170 -0.998976 0.002491 
0.901458 0.421765 -0.097402 
0.969344 -0.212430 -0.123477 
-0.810283 0.533241 0.243095 
-0.258319 0.826744 0.499765 
0.091413 0.882762 -0.460842 
0.514703 0.804002 -0.297759 
-0.962835 -0.210930 0.168691 
-0.950920 0.208775 0.228396 
-0.554839 -0.816901 -0.157564 
-0.949837 -0.098167 -0.296941 
-0.330062 0.942212 -0.057414 
0.666709 -0.627769 -0.401754 
0.456494 -0.845772 -0.276194 
0.261621 -0.848176 -0.460599 
0.849841 -0.471166 0.236164 
-0.668708 -0.742127 -0.045562 
-0.150965 -0.972169 0.179157 
0.318152 0.939967 -0.123455 
0.946973 -0.306275 -0.097149 
0.998616 0.006679 -0.052173 
-0.194243 0.857447 0.476502 
0.483058 -0.872377 -0.074921 
-0.841752 -0.530446 -0.100404 
-0.023479 0.801345 0.597741 
0.714350 0.026509 0.699286 
0.713521 0.054414 0.698518 
-0.551019 0.683642 0.478551 
0.736073 -0.664241 -0.130312 
-0.031304 -0.925711 -0.376933 
0.683319 -0.352192 0.639559 
0.937662 -0.345178 0.040525 
0.089401 -0.994508 -0.054412 
-0.688086 0.723008 -0.061628 
0.946189 -0.287848 -0.147887 