# vtk DataFile Version 3.1
vtk output
ASCII
DATASET POLYDATA
POINTS 2851 float
-2.751653 -0.108345 -5.535757 
2.463423 2.215986 -2.872989 
1.773042 -1.461204 -6.768446 
-1.808112 -0.457902 -7.595589 
-3.465305 -0.396125 -0.664772 
1.272073 2.553169 -5.189728 
0.908275 3.030321 -3.826165 
-1.247596 -2.937288 -3.646735 
-3.470600 -0.093890 -1.078181 
1.671234 2.307855 -5.200820 
-0.037536 2.589083 -6.032812 
1.954221 1.402675 -6.513588 
-2.786355 -0.223145 -5.395883 
-0.460681 -0.758166 -8.681744 
-0.317930 -1.177190 -8.414478 
0.024594 -1.115398 -8.506573 
-2.113836 -0.727110 -6.907388 
0.729183 -2.952980 -4.420856 
-0.203956 -1.811679 -7.660768 
1.586881 0.657175 -7.821187 
2.040012 1.527060 -6.143684 
2.570180 2.059801 -3.005939 
-1.838937 2.794973 -2.619101 
1.087315 2.665281 -5.100000 
-2.352263 -1.345051 -5.677207 
0.906725 3.372793 -0.433201 
-0.535644 -2.550637 -5.985809 
-0.256932 -0.815775 -8.700973 
0.312563 3.312843 -2.768543 
0.147938 3.319646 -2.799898 
1.855114 2.737491 -2.925395 
3.473769 -0.328642 -0.605502 
-2.985281 1.774903 -1.059726 
-3.047242 1.653512 -1.186287 
3.454008 -0.523086 -0.337375 
3.481010 -0.306559 -0.293041 
3.450236 -0.525794 -0.507640 
3.489883 -0.139114 -0.383030 
-2.902303 1.900253 -1.144679 
3.486414 -0.158489 -0.525225 
-1.194446 2.389117 -5.799028 
2.988733 -1.219648 -3.456838 
2.671767 1.446258 -4.439341 
2.846466 1.074068 -4.423036 
2.727398 1.164725 -4.753348 
0.054390 3.491525 -0.500432 
0.990909 -3.298818 -1.546292 
0.854440 -3.322471 -1.733648 
0.189677 -3.488874 -0.380939 
0.514079 -3.455344 -0.404793 
3.096465 -0.299119 -4.099417 
-1.317238 3.018105 -3.026879 
0.414437 -2.815101 -5.217373 
-3.038957 -1.480161 -2.303770 
-2.680243 -2.232126 -0.655345 
-1.378397 -3.183762 -1.114114 
0.681634 1.488880 -7.934083 
2.736671 -1.712524 -3.448477 
1.339319 -0.088181 -8.293252 
-0.242134 0.781435 -8.728225 
-0.991135 0.117827 -8.606476 
-1.628791 2.880752 -2.907681 
-3.237421 -0.711284 -2.866581 
2.227833 -2.691285 -0.392868 
-2.065530 1.785879 -5.614549 
-0.360240 2.647165 -5.794437 
-0.670841 2.669752 -5.539740 
1.642826 -2.375084 -5.064205 
-1.404040 -0.137737 -8.213350 
-0.161163 3.339208 -2.632540 
-3.211242 0.359624 -3.438921 
2.503459 -2.320195 -1.947007 
-1.573890 3.104606 -0.866216 
3.237783 -1.246165 -1.138043 
-3.256379 0.652985 -2.814940 
0.983746 2.803841 -4.734339 
2.345441 -2.377652 -2.657767 
-1.876813 -2.884199 -1.588700 
1.473541 -3.170676 -0.087140 
-2.772643 -0.559283 -5.280063 
-1.466013 3.093699 -1.837484 
-2.432200 0.700909 -6.199309 
3.372278 -0.421791 -2.108566 
-2.011927 -2.846267 -0.728773 
2.492171 2.447280 -0.462088 
-0.202011 3.316004 -2.805663 
0.218319 3.486829 -0.403091 
-0.922644 -3.358484 -0.799186 
-3.041723 -0.403021 -4.307075 
3.160501 0.365527 -3.720970 
-1.362637 2.070419 -6.337186 
3.200779 0.009854 -3.609496 
-2.923442 -1.313455 -3.592840 
-3.102048 0.157782 -4.132122 
-3.188468 -0.220865 -3.641066 
-3.264610 0.074727 -3.222130 
3.084216 -0.496524 -4.035537 
-1.571264 2.616082 -4.388030 
-1.923384 -2.835195 -1.791304 
-0.863199 3.383238 -0.492659 
1.150898 -3.295217 -0.543573 
3.445836 0.567093 -0.466298 
-0.753429 -2.226411 -6.647434 
-3.094614 1.616003 -0.541965 
-0.186629 3.078609 -4.233874 
-1.596282 -0.120860 -7.983911 
-3.497011 -0.063353 -0.197493 
2.677469 2.178850 -1.428127 
3.340839 0.576515 -2.195929 
2.919039 -1.218992 -3.824620 
-2.447162 -2.490892 -0.503111 
-2.116952 -0.413731 -7.071722 
-2.777287 -1.143055 -4.598557 
-2.428453 2.010378 -3.890075 
0.670982 -2.349588 -6.423766 
-3.002081 1.764056 -0.844057 
3.019035 -1.654879 -1.558989 
0.019753 3.344319 -2.632033 
3.469565 0.413766 -0.358660 
1.636068 2.836028 -3.155826 
-1.544723 2.946559 -2.772092 
-3.444283 0.579062 -0.470721 
-2.194103 2.680849 -1.248395 
-0.856557 3.308137 -1.910332 
-0.347337 3.294164 -2.886790 
-1.463424 3.162563 -0.749633 
1.141902 -1.902220 -6.940246 
1.832217 -0.096169 -7.645372 
3.264846 -1.240037 -0.433337 
-2.798981 -2.078892 -0.681348 
-1.184407 -3.263070 -1.071823 
0.803381 1.643683 -7.653023 
-2.356556 2.581856 -0.271321 
0.518523 -3.381532 -1.856027 
0.329883 3.139566 -3.864222 
2.180659 -2.733722 -0.199378 
-3.301836 0.353744 -2.822114 
0.895961 -3.296413 -1.916955 
-1.141785 3.027520 -3.409245 
0.000560 -1.861912 -7.603343 
0.835819 0.036928 -8.716822 
-0.087943 3.221495 -3.488448 
2.065880 2.194742 -4.552369 
0.002889 3.082268 -4.243210 
-1.840044 1.721348 -6.228785 
-1.822432 2.433830 -4.437302 
-2.195076 2.528249 -2.596377 
-1.706998 1.518249 -6.798590 
1.893089 2.655048 -3.244169 
-3.442345 0.361772 -1.290121 
-2.223301 -2.360750 -3.352157 
0.875684 -3.202796 -2.802465 
1.245216 -3.263041 -0.399618 
3.303000 -0.797028 -2.114905 
-2.075065 2.216351 -4.457616 
-2.209541 2.329360 -3.565499 
3.031267 -1.054821 -3.564114 
-0.427212 3.377493 -2.064400 
-0.403947 1.758377 -7.692360 
1.876768 2.945826 -0.410282 
-0.010194 3.250238 -3.315725 
-2.539651 -2.399675 -0.391569 
2.633914 -2.172788 -1.933362 
0.177757 3.245410 -3.315203 
2.937167 0.411238 -4.752712 
-2.398457 0.224185 -6.509784 
-2.061314 2.625680 -2.681111 
-1.998710 2.573142 -3.263452 
-2.213777 -2.410003 -3.156643 
2.973289 0.479892 -4.559338 
-1.449961 2.320498 -5.595291 
-1.359465 2.305774 -5.782730 
-1.873336 2.020311 -5.534920 
-2.001692 1.229580 -6.651817 
-0.261218 -2.021129 -7.295366 
-1.680470 -2.161529 -5.584655 
-2.752275 -0.444882 -5.420266 
-0.683245 -2.335362 -6.445800 
2.719497 -0.630447 -5.405872 
0.288881 3.209018 -3.492329 
-3.032523 1.734813 -0.420330 
-2.782770 2.110100 -0.477957 
0.586566 3.138144 -3.665969 
-2.045335 1.949088 -5.297645 
-3.452524 -0.405382 -0.993442 
-3.435017 -0.554284 -0.889941 
-1.330557 2.770175 -4.288171 
2.604772 2.331739 -0.194362 
3.045499 0.452855 -4.251948 
-2.232441 2.689742 -0.272753 
-1.928277 -2.876219 -1.227762 
3.001192 0.689721 -4.249524 
3.275954 1.207889 -0.506146 
2.955828 -1.750738 -1.665221 
-0.465964 0.820597 -8.645022 
-2.828058 1.670933 -3.082312 
-2.847672 -1.410743 -3.746239 
2.904860 -1.384448 -3.513488 
-0.123424 2.841688 -5.224384 
-1.777972 2.802246 -2.835805 
1.788016 2.751263 -3.111790 
-3.018418 -1.741758 -0.739226 
-1.802063 2.008558 -5.715438 
-2.986338 0.854485 -4.133500 
-2.271519 2.342434 -3.232860 
-2.301704 2.350183 -3.046834 
-1.835874 -2.971631 -0.443190 
-1.213729 2.505544 -5.437174 
0.569642 2.665138 -5.625475 
2.865213 1.151363 -4.208198 
-1.223754 -3.263346 -0.732945 
2.753680 1.227899 -4.544228 
0.760224 0.616655 -8.619757 
-0.525047 1.007225 -8.490675 
0.790758 2.853125 -4.778617 
-2.715718 -0.767273 -5.303873 
3.199975 1.395767 -0.473800 
-1.113926 -3.296788 -0.869738 
-1.867043 -1.904267 -5.809576 
2.896681 -0.531022 -4.840947 
1.830351 2.444240 -4.367199 
3.323668 1.073906 -0.399694 
-0.259969 -3.214354 -3.451262 
1.393499 2.925316 -3.373475 
3.273867 -1.119856 -1.295554 
-0.560676 2.625149 -5.757490 
2.254936 2.284018 -3.561930 
-2.650644 2.263495 -0.721918 
-0.704799 3.336653 -1.999408 
-3.491081 0.150479 -0.402249 
2.880704 1.678201 -2.704272 
-2.647724 -2.277971 -0.472158 
1.702301 -3.052913 -0.279607 
-1.378757 -2.300339 -5.762764 
-1.075329 3.078101 -3.250912 
1.396401 2.983585 -3.017828 
2.669676 -2.150156 -1.768238 
-1.805541 1.543596 -6.589781 
2.192310 -1.672667 -5.522123 
-0.867720 0.266582 -8.667079 
2.694073 -1.724102 -3.627776 
-1.186022 0.689097 -8.255883 
1.310730 -1.758009 -6.995469 
1.203613 -1.246633 -7.799759 
0.670483 -3.366896 -1.713413 
-0.315254 -2.374087 -6.542295 
-2.115599 -1.577498 -5.892922 
0.605117 1.984560 -7.224399 
-1.998526 1.763269 -5.817843 
0.554258 0.705916 -8.676889 
1.935833 0.921815 -7.091996 
-0.937536 2.547351 -5.664332 
3.137938 -0.152867 -3.944656 
-2.685773 -0.524849 -5.592342 
-1.851513 -1.816248 -6.026043 
-1.525286 -0.837178 -7.789824 
2.347158 2.578948 -0.681873 
-1.285869 -0.278879 -8.315932 
1.811058 -2.279531 -4.975299 
-1.606952 2.942188 -2.561282 
2.853376 -0.268159 -5.139231 
1.146816 -2.007857 -6.735417 
1.748460 3.025344 -0.303529 
-0.724165 -0.491365 -8.691241 
-1.935760 2.089347 -5.212005 
-2.179515 1.501777 -5.872715 
-0.594455 2.741648 -5.362860 
-0.839893 -0.645764 -8.554658 
-1.977587 2.709805 -2.541443 
-0.533638 -0.544067 -8.761284 
-0.101833 0.917760 -8.659074 
-1.377330 -1.206753 -7.648949 
1.834528 2.968349 -0.577108 
-2.330943 2.223129 -3.503351 
-1.032733 2.179825 -6.501977 
-2.802420 2.014850 -1.453125 
-0.400676 -2.264908 -6.762456 
0.743369 2.810960 -4.989443 
0.741140 -0.125725 -8.766244 
-0.553125 3.447941 -0.485310 
-0.067208 -3.375334 -2.327432 
-0.825701 -2.354469 -6.289018 
3.048388 1.705224 -0.354397 
-3.303585 -1.140522 -0.342559 
-0.662187 2.300611 -6.546126 
3.469165 0.434385 -0.179799 
1.543543 -3.135817 -0.241036 
-1.637328 -3.044221 -1.345024 
3.159174 1.489819 -0.343229 
-1.648942 -0.457747 -7.833556 
-3.320619 0.072775 -2.820387 
-1.253924 -3.167804 -2.010815 
-1.710130 -0.570271 -7.696076 
-3.016067 -0.202140 -4.516718 
-1.678704 -0.919854 -7.513885 
0.066657 2.515788 -6.233800 
-1.237187 3.264071 -0.515941 
-1.381475 2.423213 -5.419422 
0.793764 1.764520 -7.481117 
-0.600766 -3.428665 -0.854048 
-2.617429 -0.729872 -5.651438 
-2.300515 0.565844 -6.605642 
2.955768 1.583904 -2.549485 
-2.064720 -2.470259 -3.494712 
-3.242761 0.361359 -3.236143 
2.788720 -1.995212 -1.763728 
1.217413 -3.200770 -1.818341 
-0.633816 1.696347 -7.679304 
-3.076663 -0.198849 -4.240149 
-2.522450 2.006501 -3.488025 
3.037821 -0.864734 -3.853458 
-3.311456 -0.088383 -2.882723 
-2.048578 2.501726 -3.423784 
-3.002403 -0.406312 -4.484993 
-3.004939 -1.577741 -2.167864 
-3.110341 -1.566228 -0.808887 
-2.627007 -0.857896 -5.503173 
-1.408473 -0.995595 -7.810301 
-1.634799 -0.810448 -7.658117 
-3.047581 -0.521239 -4.195764 
0.357472 3.473463 -0.508878 
-3.300924 0.187432 -2.924718 
-3.128710 0.068347 -4.017453 
1.618161 2.903962 -2.794579 
-2.386606 0.437918 -6.468730 
-3.221655 -0.113766 -3.476001 
-2.584568 -1.353044 -4.950392 
-2.587352 -1.445747 -4.764110 
1.861539 2.641525 -3.431434 
1.822034 0.975303 -7.242022 
[...]
POINT_DATA 2851 
VECTORS    Normal    double 
-0.094177 -0.005304 -0.028593 
0.070809 0.063370 -0.011355 
0.090358 -0.076509 -0.050277 
-0.089561 -0.025150 -0.056180 
-0.075315 -0.008841 -0.001405 
0.055750 0.107948 -0.035689 
0.029933 0.103980 -0.020988 
-0.063878 -0.150357 -0.033814 
-0.085178 -0.003329 -0.003930 
0.083175 0.117589 -0.042099 
0.000310 0.140300 -0.049592 
0.108289 0.081444 -0.056730 
-0.095658 -0.005993 -0.027776 
-0.041849 -0.073135 -0.126427 
-0.024485 -0.094276 -0.103564 
0.003286 -0.102528 -0.120328 
-0.084922 -0.031100 -0.041861 
0.037209 -0.140343 -0.031139 
-0.016644 -0.129425 -0.084042 
0.100105 0.039910 -0.070639 
0.110439 0.086750 -0.053350 
0.101015 0.080967 -0.020235 
-0.051515 0.079451 -0.011588 
0.043469 0.108399 -0.030329 
-0.089368 -0.053008 -0.031608 
0.026431 0.102496 -0.001502 
-0.026114 -0.134171 -0.047308 
-0.026589 -0.081217 -0.136319 
0.008054 0.082907 -0.009811 
0.002885 0.082608 -0.011713 
0.047477 0.071747 -0.011609 
0.080455 -0.007155 -0.003045 
-0.082538 0.048829 -0.003794 
-0.081191 0.044304 -0.005377 
0.084844 -0.013861 -0.002843 
0.083848 -0.006645 0.000251 
0.113350 -0.018007 -0.001042 
0.089953 -0.004262 -0.003408 
-0.077591 0.051041 -0.005253 
0.082031 -0.003619 0.000286 
-0.045394 0.093447 -0.034582 
0.085401 -0.034441 -0.013865 
0.116668 0.064260 -0.026971 
0.125838 0.048791 -0.027954 
0.121740 0.053248 -0.030273 
0.001172 0.090541 -0.002721 
0.032485 -0.112480 -0.007273 
0.029956 -0.111439 -0.009940 
0.005632 -0.088582 -0.001054 
0.014773 -0.095596 -0.000795 
0.123457 -0.010860 -0.026121 
-0.037832 0.084482 -0.012680 
0.017220 -0.127417 -0.037276 
-0.087169 -0.043612 -0.010183 
-0.061260 -0.052165 -0.002171 
-0.045323 -0.101332 -0.006064 
0.039025 0.091301 -0.072026 
0.087940 -0.056016 -0.018487 
0.088079 -0.006098 -0.080613 
-0.019482 0.068535 -0.115518 
-0.063922 0.010428 -0.085720 
-0.045308 0.081781 -0.012633 
-0.089225 -0.018733 -0.011529 
0.054618 -0.067731 -0.001835 
-0.071687 0.062473 -0.030513 
-0.015307 0.125660 -0.041361 
-0.026504 0.111755 -0.034645 
0.062749 -0.091767 -0.031094 
-0.093910 -0.012855 -0.082548 
-0.006287 0.104192 -0.013131 
-0.088297 0.010144 -0.013606 
0.073547 -0.069336 -0.010256 
-0.044179 0.089075 -0.004163 
0.087116 -0.032668 -0.004290 
-0.099303 0.019747 -0.012167 
0.041377 0.115011 -0.028158 
0.075475 -0.074866 -0.011682 
-0.065991 -0.098995 -0.009207 
0.034377 -0.070826 -0.000811 
-0.109237 -0.020200 -0.031772 
-0.041165 0.088731 -0.008295 
-0.099181 0.029396 -0.037472 
0.111474 -0.014429 -0.008986 
-0.051990 -0.074791 -0.002200 
0.058797 0.057728 -0.002434 
-0.004773 0.086880 -0.009869 
0.006205 0.094225 -0.000788 
-0.027404 -0.103734 -0.003301 
-0.090658 -0.013317 -0.019901 
0.138319 0.017981 -0.023822 
-0.059328 0.092638 -0.042695 
0.117363 0.000856 -0.017616 
-0.089004 -0.041428 -0.016390 
-0.086421 0.003800 -0.017763 
-0.106675 -0.005790 -0.018219 
-0.067157 0.002348 -0.009836 
0.119136 -0.019919 -0.022474 
-0.052549 0.089495 -0.022947 
-0.066114 -0.099652 -0.008474 
-0.023983 0.092046 -0.002999 
0.033534 -0.092071 -0.001619 
0.092838 0.014845 -0.003012 
-0.036019 -0.113338 -0.049887 
-0.083975 0.044171 -0.002808 
-0.007852 0.109456 -0.023471 
-0.087687 -0.009180 -0.065984 
-0.057537 -0.001540 -0.000377 
0.083802 0.069313 -0.008011 
0.127807 0.020887 -0.011672 
0.098461 -0.041573 -0.021608 
-0.064250 -0.064664 -0.002602 
-0.084095 -0.017905 -0.042108 
-0.106623 -0.042085 -0.027412 
-0.069707 0.058302 -0.017730 
0.036685 -0.130689 -0.055183 
-0.080669 0.047780 -0.004061 
0.088876 -0.050538 -0.007110 
0.001175 0.078948 -0.008934 
0.089725 0.011087 -0.000295 
0.052232 0.092528 -0.016129 
-0.042090 0.078573 -0.011005 
-0.084229 0.014753 -0.002278 
-0.050060 0.060653 -0.004108 
-0.025178 0.095381 -0.007588 
-0.009661 0.093013 -0.012702 
-0.042795 0.090500 -0.002698 
0.062139 -0.106901 -0.056713 
0.089329 -0.005860 -0.059729 
0.097142 -0.035467 -0.002258 
-0.072209 -0.052128 -0.002954 
-0.037258 -0.106383 -0.004663 
0.042199 0.091513 -0.063013 
-0.074510 0.080191 -0.000772 
0.014858 -0.093758 -0.009349 
0.010069 0.107302 -0.020695 
0.051932 -0.064625 -0.001216 
-0.087774 0.009491 -0.010752 
0.025801 -0.098656 -0.007297 
-0.033246 0.091277 -0.015357 
0.000524 -0.107020 -0.065377 
0.067162 -0.000223 -0.107538 
-0.001594 0.101306 -0.016250 
0.084425 0.087250 -0.027847 
0.001322 0.111454 -0.022515 
-0.080510 0.076552 -0.042765 
-0.061466 0.083322 -0.023897 
-0.065741 0.074715 -0.011243 
-0.094690 0.082420 -0.054831 
0.053274 0.075345 -0.015313 
-0.087837 0.009308 -0.004297 
-0.085419 -0.092308 -0.017536 
0.039970 -0.140484 -0.016724 
0.039822 -0.108565 -0.001597 
0.112997 -0.027506 -0.009209 
-0.066740 0.071942 -0.023043 
-0.053104 0.056957 -0.013568 
0.086834 -0.030243 -0.017232 
-0.011503 0.087083 -0.008225 
-0.022460 0.107385 -0.071242 
0.050125 0.080520 -0.002643 
-0.001433 0.097855 -0.015530 
-0.064985 -0.062092 -0.000899 
0.077444 -0.062698 -0.006959 
0.006598 0.099960 -0.015058 
0.132451 0.020101 -0.030862 
-0.108734 0.008290 -0.045479 
-0.059239 0.076491 -0.012188 
-0.064610 0.081212 -0.015799 
-0.085045 -0.091077 -0.020358 
0.105402 0.015833 -0.026327 
-0.052764 0.086563 -0.031794 
-0.051247 0.084901 -0.031892 
-0.056236 0.061784 -0.026355 
-0.105539 0.065004 -0.055051 
-0.019278 -0.127138 -0.068384 
-0.085124 -0.106226 -0.042253 
-0.095380 -0.017185 -0.028457 
-0.042127 -0.134226 -0.056683 
0.124176 -0.029198 -0.034976 
0.008345 0.105589 -0.017799 
-0.079984 0.045466 -0.001050 
-0.071076 0.054496 -0.002646 
0.018469 0.104665 -0.019344 
-0.058949 0.055703 -0.023683 
-0.072092 -0.008963 -0.003757 
-0.075525 -0.011956 -0.001370 
-0.044918 0.096112 -0.022458 
0.074196 0.066413 -0.002060 
0.108825 0.014079 -0.021825 
-0.077619 0.094790 -0.001606 
-0.071304 -0.102950 -0.006601 
0.112056 0.027715 -0.024847 
0.087312 0.031341 -0.002517 
0.077351 -0.044128 -0.006371 
-0.040127 0.068619 -0.109393 
-0.091849 0.054235 -0.014148 
-0.090814 -0.043444 -0.018601 
0.094524 -0.045874 -0.018880 
-0.003741 0.121191 -0.032834 
-0.051792 0.080073 -0.012120 
0.049998 0.075812 -0.012578 
-0.085365 -0.050396 -0.002610 
-0.067968 0.074506 -0.031557 
-0.075145 0.021566 -0.015333 
-0.057889 0.060223 -0.011331 
-0.068207 0.070611 -0.014579 
-0.051236 -0.083855 -0.001220 
-0.044342 0.094256 -0.031049 
0.030249 0.135370 -0.041879 
0.122432 0.047294 -0.028281 
-0.031931 -0.088500 -0.003099 
0.113464 0.049608 -0.030360 
0.060072 0.049579 -0.099393 
-0.045619 0.085602 -0.109905 
0.030484 0.113994 -0.030152 
-0.102248 -0.030627 -0.029844 
0.091696 0.041662 -0.001036 
-0.037812 -0.107836 -0.004898 
-0.080131 -0.079342 -0.037328 
0.126945 -0.022687 -0.033711 
0.084686 0.109517 -0.028233 
0.102016 0.033644 -0.000554 
-0.011023 -0.186343 -0.032245 
0.045980 0.099962 -0.018491 
0.086728 -0.030468 -0.006512 
-0.025414 0.112598 -0.037577 
0.085789 0.086163 -0.021929 
-0.071854 0.062267 -0.004053 
-0.016378 0.078459 -0.007558 
-0.080738 0.002937 -0.001187 
0.088117 0.049957 -0.013762 
-0.062963 -0.053612 -0.002250 
0.060160 -0.106470 -0.001730 
-0.071798 -0.116843 -0.044046 
-0.028644 0.079074 -0.013087 
0.037774 0.083090 -0.012772 
0.076937 -0.063466 -0.009183 
-0.093910 0.081654 -0.054091 
0.089467 -0.068228 -0.032043 
-0.076305 0.021578 -0.121286 
0.088122 -0.055666 -0.016130 
-0.108049 0.059821 -0.110453 
0.070455 -0.091887 -0.057043 
0.079186 -0.084048 -0.077519 
0.018718 -0.097724 -0.006777 
-0.019922 -0.134927 -0.056783 
-0.101062 -0.077133 -0.042617 
0.040646 0.130857 -0.076174 
-0.074780 0.065202 -0.031961 
0.042011 0.054173 -0.106522 
0.105129 0.052974 -0.060783 
-0.034963 0.098876 -0.033177 
0.109603 -0.006378 -0.020043 
-0.099905 -0.018186 -0.030578 
-0.080735 -0.079463 -0.038785 
-0.085016 -0.046639 -0.062710 
0.054474 0.061070 -0.003181 
-0.091290 -0.016066 -0.091006 
0.070163 -0.087649 -0.027577 
-0.044478 0.082871 -0.011201 
0.143096 -0.011808 -0.041181 
0.065242 -0.112320 -0.059401 
0.043188 0.073253 0.000254 
-0.062336 -0.045037 -0.114060 
-0.059201 0.065047 -0.022907 
-0.084406 0.057832 -0.033436 
-0.025863 0.112435 -0.033866 
-0.073293 -0.053399 -0.112134 
-0.057282 0.077391 -0.010648 
-0.049410 -0.049154 -0.119036 
-0.010409 0.076981 -0.110706 
-0.094435 -0.081883 -0.076311 
0.048487 0.077200 -0.001032 
-0.057184 0.053781 -0.012587 
-0.049333 0.107810 -0.047028 
-0.077552 0.055809 -0.006638 
-0.020744 -0.131152 -0.059389 
0.031381 0.115897 -0.029732 
0.065697 -0.008289 -0.118967 
-0.014777 0.090768 -0.002893 
-0.001766 -0.140538 -0.012666 
-0.043256 -0.131291 -0.053256 
0.085095 0.049410 -0.001615 
-0.070088 -0.024487 -0.000274 
-0.036384 0.126830 -0.053360 
0.090318 0.011038 -0.001853 
0.057783 -0.120471 -0.000600 
-0.059479 -0.107379 -0.007864 
0.092478 0.041757 -0.001501 
-0.080465 -0.024002 -0.056783 
-0.065543 0.002133 -0.008582 
-0.044176 -0.115026 -0.009313 
-0.075858 -0.023005 -0.051265 
-0.081333 -0.004257 -0.019381 
-0.091402 -0.048719 -0.065170 
0.001300 0.128175 -0.047480 
-0.035351 0.096897 -0.002557 
-0.051962 0.088825 -0.029857 
0.043617 0.095433 -0.063595 
-0.018949 -0.113052 -0.003540 
-0.107077 -0.031646 -0.035913 
-0.113206 0.026457 -0.050492 
0.089135 0.048988 -0.011919 
-0.087826 -0.103322 -0.024905 
-0.089268 0.010231 -0.014168 
0.071515 -0.050156 -0.005740 
0.041952 -0.112195 -0.008849 
-0.044044 0.108859 -0.072258 
-0.080557 -0.004150 -0.016196 
-0.069882 0.055100 -0.013894 
0.105868 -0.030182 -0.021861 
-0.079600 -0.003034 -0.010422 
-0.064301 0.080187 -0.015997 
-0.090385 -0.013295 -0.019617 
-0.073311 -0.037432 -0.007836 
-0.090783 -0.044538 -0.004160 
-0.114789 -0.035724 -0.036592 
-0.094501 -0.067016 -0.082082 
-0.081416 -0.043496 -0.057384 
-0.108565 -0.017001 -0.022783 
0.008893 0.090128 -0.002646 
-0.103811 0.005408 -0.015101 
-0.060912 0.001957 -0.012004 
0.044271 0.080365 -0.011978 
-0.100844 0.019901 -0.040789 
-0.101998 -0.005233 -0.016583 
-0.105056 -0.056905 -0.029747 
-0.105220 -0.056868 -0.030015 
0.062028 0.087375 -0.015863 
0.104929 0.052936 -0.060793 
-0.073324 -0.093178 -0.010562 
0.087757 -0.005365 -0.074801 
-0.079462 -0.111974 -0.019506 
0.041510 0.075863 -0.011995 
-0.108113 -0.042865 -0.027449 
-0.060723 -0.076412 -0.003885 
-0.038016 0.082427 -0.013411 
-0.057522 -0.001591 -0.001131 
0.107039 -0.037225 -0.018551 
-0.045159 -0.115856 -0.011652 
0.125700 -0.044833 -0.001183 
0.079858 0.104316 -0.029469 
-0.011559 0.076976 -0.093139 
0.113503 -0.006416 -0.012989 
0.124707 0.023229 -0.032302 
0.100174 0.033070 -0.053797 
0.041693 0.100178 -0.074151 
-0.028652 -0.117867 -0.005839 
-0.071305 -0.086804 -0.007462 
-0.069806 -0.026429 -0.001803 
-0.057921 -0.083173 -0.003094 
0.008058 0.103623 -0.017686 
-0.015419 0.118749 -0.034366 
-0.052133 -0.077581 -0.003597 
-0.056040 -0.097827 -0.003879 
-0.054424 -0.095180 -0.003457 
-0.035479 0.100637 -0.023204 
-0.042384 0.093015 -0.020597 
-0.075574 -0.026371 -0.001430 
-0.079065 -0.020217 -0.000561 
-0.077797 -0.007084 -0.001029 
0.091849 -0.025929 -0.004299 
-0.079790 -0.044073 -0.001072 
-0.071270 -0.051327 -0.002674 
0.092132 -0.045524 -0.010489 
-0.082050 -0.038885 -0.002454 
-0.075183 -0.015584 -0.001256 
0.113622 -0.019992 -0.013291 
-0.056924 0.052532 -0.002006 
-0.079842 -0.035752 -0.000987 
-0.022417 -0.128990 -0.050797 
-0.084367 -0.061098 -0.003148 
-0.048464 0.085631 -0.001525 
-0.069972 0.050551 -0.011952 
-0.091699 -0.014744 -0.004501 
-0.042022 0.092360 -0.028662 
-0.075808 0.077829 -0.037976 
-0.107981 0.037485 -0.045988 
-0.091734 0.021412 -0.020053 
-0.103684 -0.053646 -0.026066 
-0.030337 0.087469 -0.012091 
-0.085869 -0.003513 -0.009954 
-0.066624 0.059479 -0.015483 
0.091522 -0.045229 -0.007712 
-0.064188 -0.101844 -0.011607 
-0.086953 -0.035756 -0.009388 
-0.072339 -0.036962 -0.007850 
-0.059884 0.001712 -0.001178 
-0.085392 0.068102 -0.039060 
-0.037573 -0.113799 -0.007344 
0.088128 -0.007789 -0.003637 
-0.062662 0.055931 -0.015022 
-0.084528 -0.040039 -0.002663 
-0.086859 0.056622 -0.015954 
-0.062217 0.076500 -0.002035 
-0.068555 0.070211 -0.033955 
0.017884 -0.095850 -0.005643 
0.121691 -0.021944 -0.031210 
-0.017406 0.109734 -0.013403 
-0.087891 0.026481 -0.007149 
0.071705 -0.071734 -0.012662 
-0.065450 0.066670 -0.017618 
-0.006803 0.105276 -0.008510 
0.008732 -0.101494 -0.003284 
0.005396 -0.085687 -0.001498 
0.119462 0.015668 -0.020332 
-0.079262 0.072281 -0.001801 
0.040082 -0.086649 -0.002163 
-0.082029 0.053898 -0.005276 
-0.078657 0.050054 -0.002255 
-0.057536 0.083810 -0.001645 
-0.096208 0.014548 -0.006873 
-0.091532 0.012690 -0.003122 
-0.077870 0.007328 -0.001904 
-0.074412 0.056852 -0.001921 
-0.071784 0.049003 -0.000909 
-0.051012 0.087058 -0.002743 
-0.077526 0.049395 -0.002717 
-0.070109 0.047893 -0.001371 
-0.016712 0.083786 -0.000746 
-0.020293 0.071206 -0.001109 
0.010640 -0.107353 -0.007258 
0.085416 -0.054744 -0.007122 
0.005545 -0.125530 -0.011837 
0.073987 0.066041 -0.000441 
-0.060026 -0.122982 -0.052277 
-0.059547 0.084466 -0.002679 
-0.004559 0.098858 -0.006473 
0.069247 -0.086502 -0.002807 
0.057515 -0.084585 -0.001989 
0.068089 -0.102608 -0.049649 
-0.053791 -0.110820 -0.012880 
0.008911 -0.091923 -0.007021 
-0.060838 0.049046 -0.000795 
-0.083688 -0.003656 -0.010319 
-0.080744 -0.003408 -0.017414 
-0.038922 0.084941 -0.001592 
-0.017308 0.086862 -0.001512 
-0.023489 0.082448 -0.001233 
-0.096664 0.069107 -0.047381 
-0.014543 0.090360 -0.006345 
0.035614 -0.126049 -0.017383 
-0.050310 0.085884 -0.002927 
-0.001364 -0.093933 -0.002431 
-0.088740 -0.026907 -0.011127 
0.070769 0.065761 -0.015724 
-0.072176 -0.002909 -0.009843 
0.065368 -0.080174 -0.010955 
-0.087666 -0.018341 -0.011166 
-0.048689 0.078508 -0.009984 
-0.014862 0.117109 -0.033417 
0.073545 0.092789 -0.026125 
-0.034948 0.081084 -0.010304 
0.123267 0.040707 -0.034162 
-0.105069 -0.039674 -0.024004 
0.091615 -0.044000 -0.016212 
-0.068419 -0.020241 -0.001889 
-0.063006 0.067574 -0.016091 
-0.065341 0.070783 -0.012427 
-0.060901 0.052303 -0.011523 
-0.006224 0.097853 -0.008505 
0.078503 0.072889 -0.016417 
-0.053463 0.080037 -0.013367 
0.121412 -0.013988 -0.019750 
0.131469 -0.011776 -0.027132 
-0.041706 0.082989 -0.033849 
-0.079534 0.026959 -0.018461 
-0.056798 -0.082792 -0.005973 
-0.047993 -0.107607 -0.006111 
-0.045003 0.076464 -0.025319 
-0.058231 0.067086 -0.025468 
0.125616 -0.029227 -0.037875 
0.110764 0.048329 -0.015283 
-0.100919 0.015537 -0.014597 
0.088217 0.062709 -0.005322 
-0.103908 0.036137 -0.043635 
0.056448 0.047102 -0.088269 
0.042943 0.085533 -0.010184 
-0.104374 0.005482 -0.013969 
0.059247 -0.063077 -0.001358 
-0.103464 -0.053332 -0.026402 
0.125772 0.030586 -0.013932 
0.070103 -0.112734 -0.021729 
-0.085100 0.009134 -0.016468 
-0.034702 0.097766 -0.020029 
-0.063019 0.073467 -0.019882 
-0.062324 0.058903 -0.025094 
0.018142 -0.144144 -0.033048 
0.001233 -0.131116 -0.070298 
-0.109623 0.084126 -0.068761 
-0.070957 -0.019381 -0.118284 
0.053907 0.077930 -0.061257 
-0.108437 -0.088920 -0.052631 
0.108193 -0.006139 -0.020365 
0.037848 0.122742 -0.069050 
-0.048531 -0.010829 -0.089699 
-0.064205 0.018120 -0.118669 
-0.081571 0.042861 -0.002444 
0.029779 -0.128173 -0.034274 
-0.086012 -0.012193 -0.073684 
-0.086814 0.075212 -0.103321 
0.014664 -0.136051 -0.035512 
0.034822 -0.131859 -0.030487 
0.059026 0.067738 -0.090506 
-0.043268 0.098500 -0.074748 
0.026675 -0.103962 -0.000770 
-0.040110 0.083331 -0.031452 
-0.035015 0.103007 -0.032942 
0.123567 0.016517 -0.014659 
0.029077 -0.125151 -0.033715 
-0.025920 0.136503 -0.061324 
0.062323 0.096924 -0.013558 
0.111340 -0.014303 -0.011087 
0.112249 -0.033481 -0.013403 
0.102231 -0.047986 -0.001714 
-0.061554 0.062806 -0.017173 
0.047457 -0.127254 -0.050971 
0.055330 -0.121802 -0.055011 
-0.021826 0.093541 -0.005753 
-0.050486 0.089082 -0.021272 
-0.057642 0.082754 -0.021109 
0.080472 -0.057291 -0.054511 
0.054160 -0.119065 -0.054376 
-0.105825 -0.047750 -0.037975 
0.040389 0.075272 -0.003434 
0.026586 -0.094070 -0.002644 
0.010084 -0.107717 -0.073829 
0.057976 0.099273 -0.058473 
0.071689 -0.033322 -0.112193 
0.051094 -0.008974 -0.129140 
-0.086170 -0.009790 -0.062372 
0.102747 -0.006355 -0.066856 
-0.035894 0.079811 -0.011590 
-0.036748 0.101777 -0.024533 
0.015678 0.099378 -0.016070 
0.043942 0.098505 -0.016052 
0.023058 0.090123 -0.016456 
0.048495 0.085698 -0.014648 
-0.078014 0.007379 -0.058706 
0.070448 -0.085998 -0.083388 
-0.072757 0.062759 -0.025482 
0.046751 0.115030 -0.059159 
0.059387 0.065228 0.000115 
0.112394 0.003708 -0.022787 
-0.072299 0.047118 -0.013331 
0.081682 -0.016907 -0.082938 
0.093902 0.004494 -0.071757 
-0.035557 0.098018 -0.021011 
0.045126 -0.018983 -0.139566 
0.075927 -0.070407 -0.008259 
0.065165 0.029460 -0.103795 
-0.037242 0.084235 -0.006272 
0.091485 -0.047643 -0.056200 
0.006429 -0.104617 -0.100704 
-0.029567 0.081286 -0.002054 
0.025407 0.113107 -0.073955 
-0.090623 0.012676 -0.003922 
0.071696 0.122786 -0.078452 
0.087232 -0.032235 -0.003598 
0.090481 -0.041550 -0.005098 
0.077255 -0.086609 -0.031203 
-0.075930 -0.033948 -0.001342 
0.040007 0.099869 -0.028145 
0.103758 0.101589 -0.029667 
0.123775 0.023005 -0.033084 
0.069699 0.079369 -0.016107 
-0.082711 -0.018134 -0.040064 
0.122406 0.020258 -0.011813 
0.108039 0.048259 -0.013347 
-0.079127 0.045007 -0.001484 
0.113578 0.004821 -0.020582 
0.022671 0.080805 -0.003942 
0.024595 0.082410 -0.005758 
-0.081273 0.064735 -0.036824 
0.065565 0.072885 -0.002941 
0.061634 0.060338 -0.001822 
-0.071705 -0.088527 -0.036545 
-0.012312 -0.132660 -0.016168 
0.082037 -0.070312 -0.030701 
0.075343 0.061800 -0.003131 
-0.068113 -0.002200 -0.009976 
-0.042015 -0.120783 -0.014405 
-0.067622 0.060700 -0.011323 
-0.024256 0.087332 -0.013348 
-0.080439 -0.003705 -0.013899 
0.102548 0.058584 -0.014474 
-0.105973 -0.044232 -0.030317 
0.120054 0.034614 -0.029089 
0.110995 0.049789 -0.017528 
0.072371 0.005239 -0.074385 
0.028417 0.108220 -0.018347 
-0.079237 -0.036873 -0.014610 
-0.007086 -0.121675 -0.103910 
-0.044152 0.096043 -0.023801 
0.001523 0.081430 -0.006295 
0.091388 -0.068351 -0.067175 
0.093666 -0.072298 -0.083042 
-0.095822 0.023491 -0.005812 
0.069916 -0.049320 -0.006127 
-0.061725 -0.049299 -0.000339 
-0.026672 0.078442 -0.088099 
-0.048867 0.103140 -0.029434 
0.100717 -0.012527 -0.058705 
0.086084 0.000281 -0.002502 
0.111829 0.035132 -0.056551 
-0.057163 0.092280 -0.039838 
-0.090423 -0.032581 -0.016567 
-0.057651 0.063461 -0.013746 
-0.073760 -0.116463 -0.041861 
-0.089945 -0.025907 -0.012839 
-0.034568 -0.116479 -0.054246 
0.033200 0.097928 -0.015625 
-0.079969 -0.002966 -0.002027 
0.120590 -0.010153 -0.004175 
0.095277 -0.026890 -0.004531 
0.099407 -0.045907 -0.005948 
-0.012230 0.086010 -0.009250 
0.076911 -0.043908 -0.005912 
0.016297 0.074969 -0.005408 
0.070404 -0.045954 -0.009266 
-0.001951 0.081111 -0.011694 
-0.043559 0.092119 -0.002775 
-0.083783 0.016688 -0.000683 
-0.050871 0.083972 -0.003990 
-0.053056 0.074163 -0.004428 
-0.035256 0.068201 -0.008293 
-0.017210 0.082508 -0.008029 
-0.018739 -0.094453 -0.086909 
-0.055722 0.075096 -0.005624 
0.132560 0.034090 -0.027355 
0.086426 -0.034875 -0.014118 
0.073566 -0.082407 -0.031129 
-0.102081 0.020313 -0.040501 
-0.042535 0.091806 -0.031348 
-0.084585 0.028688 -0.018796 
-0.048999 0.085324 -0.026292 
-0.089740 0.100936 -0.063910 
-0.080393 0.008656 -0.015373 
-0.087432 0.017217 -0.017109 
-0.098477 0.015519 -0.016878 
-0.094634 0.019907 -0.014823 
0.081774 -0.070386 -0.022301 
-0.098016 0.036900 -0.018727 
-0.084873 0.024535 -0.016748 
-0.084373 0.011442 -0.017791 
-0.080389 0.038099 -0.017595 
-0.085097 0.045212 -0.022693 
-0.090615 0.041126 -0.020995 
-0.052954 0.133507 -0.064738 
0.077055 -0.075838 -0.021822 
0.069396 -0.061620 -0.020997 
-0.105797 0.054683 -0.048075 
-0.083338 0.038727 -0.023756 
-0.088954 0.025052 -0.021110 
-0.086028 0.019084 -0.022569 
0.070864 -0.089183 -0.025086 
0.103160 -0.057971 -0.027670 
-0.053414 0.084156 -0.034799 
-0.061977 0.076629 -0.025021 
-0.102196 0.005385 -0.018102 
0.092990 -0.070557 -0.035334 
0.134375 0.002009 -0.030818 
-0.101235 0.005825 -0.023506 
-0.062291 0.002174 -0.015975 