# vtk DataFile Version 3.1
vtk output
ASCII
DATASET POLYDATA
POINTS 16583 float
0.345974 1.407635 -6.744186 
-1.737806 0.012700 -6.113849 
-2.667561 -0.095254 -5.585821 
-1.744432 -1.659377 -4.383486 
1.497359 -0.174645 -7.735419 
1.327298 -2.985934 -0.146335 
0.741677 1.771686 -5.498395 
-0.640494 1.940346 -5.166335 
-2.563555 -1.339922 -4.303985 
0.273986 2.217631 -4.348547 
-1.657388 -1.274347 -6.681404 
2.367610 2.197907 -2.917168 
1.456337 -3.020938 -0.146335 
-1.850594 -0.026150 -6.162613 
2.115552 0.304129 -4.522668 
-1.849238 -1.557183 -4.414577 
1.909107 -2.617497 -0.247123 
-2.095255 -2.041162 -1.899217 
1.333952 2.979818 -0.646721 
1.391405 -1.341707 -7.044872 
1.702324 -1.371203 -6.777668 
0.039390 3.252681 -0.291950 
0.641236 -2.031433 -5.019622 
-2.556389 -0.229105 -0.247709 
-1.761465 -0.407132 -7.581695 
-0.825120 -2.235384 -3.329704 
2.622702 0.556505 -5.079782 
-3.398561 -0.424410 -0.679711 
-3.104154 -0.049402 -3.258270 
0.373173 2.279162 -4.302395 
1.328608 -3.048839 -0.065355 
-0.706399 0.140515 -7.895478 
-2.991202 1.244832 -1.003312 
0.779041 1.897610 -5.433491 
0.385991 3.300114 -0.789695 
-1.680414 -0.115722 -6.091845 
-0.419434 -2.542648 -2.486217 
2.133386 -1.124249 -3.256962 
1.224741 1.402086 -5.975363 
0.132795 3.185688 -1.714530 
0.820576 -0.232289 -8.445334 
1.252184 2.502010 -5.124289 
-2.450956 0.868144 -5.252435 
2.529606 -1.529702 -1.207006 
-1.673312 1.427832 -4.592894 
2.156438 0.855788 -4.297727 
-1.728450 2.472265 -1.834450 
1.851930 -1.410471 -5.411144 
2.198110 0.298457 -4.444006 
-1.558860 0.183877 -6.477617 
-1.764787 -0.099000 -7.303850 
1.957216 0.724293 -5.001594 
2.203532 0.742626 -3.409499 
2.325082 0.840472 -4.798212 
1.668423 -1.300850 -5.016329 
-0.588584 2.104431 -4.963721 
-0.586465 -1.911068 -5.563182 
-1.543130 -0.525932 -6.726590 
-2.945623 -0.351393 -0.177675 
1.823274 2.648641 -0.368220 
-0.381084 -2.570125 -1.620836 
-2.740927 0.086546 -0.495402 
-1.403412 0.114811 -7.261763 
-1.569415 1.478869 -5.126047 
0.655665 -0.309370 -8.545952 
0.899681 2.956066 -3.790513 
-0.138635 1.301615 -7.416993 
0.465041 2.326375 -5.372207 
-1.341096 -2.748435 -1.377649 
2.495634 1.678063 -1.947832 
2.245932 -2.162422 -2.732365 
-1.793202 -0.154572 -6.140609 
-2.517337 0.808496 -4.481010 
0.907028 -2.017951 -6.047220 
-2.365566 0.967906 -4.429661 
-1.981078 -2.446352 -0.218112 
-0.062166 3.047242 -0.952832 
0.347749 2.567635 -0.262839 
-2.603417 -1.894355 -2.407812 
-1.210272 -2.808807 -3.671776 
0.881354 -2.457387 -0.488317 
0.758264 -3.025969 -2.160948 
1.302253 2.769587 -2.551485 
-2.784736 -0.875634 -3.902620 
-1.165235 -1.168119 -7.536163 
2.191513 -1.142104 -3.368100 
-1.877227 0.686442 -5.801764 
-1.568774 2.381704 -2.468730 
-1.970035 1.423707 -4.723233 
0.000454 3.102634 -0.292213 
2.384372 0.690134 -3.353106 
-1.938082 -0.567534 -6.808262 
-2.638421 -0.000393 -4.529123 
-2.618400 -1.432291 -2.116203 
2.249560 -1.558023 -3.285800 
0.962499 -0.037551 -7.735967 
0.128954 -0.920488 -8.202400 
-0.186558 2.900066 -1.975491 
1.407913 1.889936 -4.100252 
0.195865 2.551215 -3.933993 
-2.783455 1.068910 -1.082991 
-3.178597 -0.193058 -1.060256 
-3.257685 0.173300 -0.620651 
-2.379371 1.126103 -1.074526 
-2.521432 -0.808410 -4.793032 
0.540171 -0.121791 -8.236169 
0.938258 -0.243467 -7.907294 
-1.616768 2.236738 -2.499484 
1.989483 1.207059 -5.685799 
-0.118554 -3.005309 -2.538166 
-1.292079 1.353190 -5.699109 
-1.548322 -2.310716 -0.153837 
2.183913 -0.449791 -4.411320 
-2.776346 -0.125812 -4.598853 
-2.515790 -0.320612 -5.275031 
-1.715200 -1.071321 -5.574237 
-1.704596 0.335962 -6.264319 
-1.395017 -0.544137 -7.545786 
-2.792836 0.018856 -3.181712 
-1.737740 -0.279625 -6.387727 
-1.708742 2.594026 -2.534163 
2.388489 -1.576041 -1.207138 
2.249721 -0.143457 -4.939853 
-0.476265 -2.282002 -5.777763 
-1.487071 -2.112933 -2.976619 
-0.923495 2.032594 -4.967298 
-1.349896 -2.402110 -2.610695 
-2.406222 -1.020062 -4.769859 
-2.212146 0.035089 -5.091529 
-2.854395 -0.138157 -0.235213 
-2.726550 0.083856 -3.043250 
-2.323329 -1.757270 -0.542800 
-0.382013 -1.738266 -6.316623 
-1.775957 1.808657 -4.080825 
-1.331181 -0.070730 -7.787120 
1.461645 1.855283 -3.974381 
-0.336603 -1.685427 -6.164879 
-1.791431 2.785108 -0.521463 
2.539442 0.910633 -3.054877 
-1.554532 -2.277528 -2.742045 
-2.735694 -0.215995 -1.168892 
2.503501 2.046293 -0.289414 
1.812922 2.520341 -2.852373 
-1.663521 2.690159 -0.441011 
-1.479718 1.276564 -6.156868 
-2.823675 0.017354 -2.962572 
1.331081 -1.812226 -5.246867 
-0.803059 -2.599191 -2.821289 
-2.361548 -0.736636 -4.440156 
1.382164 1.801580 -4.840686 
2.329216 0.602386 -3.892413 
0.588451 2.451525 -4.389601 
0.467190 2.243015 -4.429910 
-2.800822 0.031355 -0.390868 
0.978690 2.121878 -4.141035 
1.623493 2.639234 -2.988845 
-1.757791 1.431974 -4.711795 
-2.262410 1.858394 -2.812474 
-2.563758 -1.367802 -2.233669 
-1.438798 -0.502017 -6.856278 
1.623892 -1.233088 -6.535690 
0.929021 -1.380173 -6.553307 
-0.396746 2.452367 -4.362602 
-1.507691 1.160483 -5.818301 
-1.859093 -1.104628 -4.900414 
1.719597 2.409918 -2.949435 
0.833289 -0.342322 -7.874204 
-0.007436 0.240288 -8.208305 
-0.150078 2.371517 -6.022075 
0.471330 3.229055 -1.380884 
2.736486 -0.899598 -2.230218 
-1.647498 2.451136 -2.338345 
0.053734 -0.895097 -8.381626 
-0.272281 2.982846 -1.868933 
2.298995 -1.502550 -3.992613 
-0.854241 1.924996 -5.145132 
0.277753 3.149919 -1.354870 
-2.612839 0.699422 -2.786932 
-2.131203 -0.631810 -6.542392 
-2.203708 1.093594 -5.501574 
0.731141 -1.567037 -6.410244 
0.692923 -0.263461 -7.858977 
2.695545 -0.680597 -3.171848 
-1.910517 1.947042 -4.015100 
-0.350583 2.506730 -4.502078 
1.455182 2.483265 -1.257040 
0.949633 2.858814 -1.930049 
2.221283 -0.552454 -4.510023 
2.368715 -0.575970 -4.536349 
-1.538468 -2.276150 -3.030238 
-2.416584 -0.908483 -4.873246 
-2.611717 0.706529 -2.929974 
-2.106183 1.059907 -5.616266 
-2.609327 -0.959395 -3.643865 
-1.665950 0.569278 -6.344524 
-0.288225 -1.832529 -6.102544 
1.452534 -2.873026 -1.354300 
0.387427 3.235148 -0.178607 
1.206106 -2.381841 -2.538391 
0.365808 -2.539384 -2.442305 
-2.148679 1.742239 -2.659444 
1.905201 1.007382 -4.404953 
1.895729 1.157224 -4.373313 
-2.130290 2.345780 -0.270650 
-2.661223 -0.236851 -1.053969 
2.450327 1.832697 -0.123864 
0.828033 3.093380 -0.580698 
0.467874 3.204017 -1.503431 
-0.421234 -0.961508 -8.260816 
-0.267028 2.132601 -5.397463 
-0.238299 2.893144 -1.772146 
-0.976724 -3.126291 -0.474629 
-2.238714 1.473616 -1.658990 
2.934832 -0.423462 -1.251365 
2.380448 -1.983518 -0.328708 
2.290473 -1.966178 -0.087249 
1.588447 2.498299 -3.036129 
-0.851401 2.627438 -1.910117 
-2.156925 1.490374 -2.488868 
0.870723 2.326937 -4.099112 
2.405871 -1.697601 -4.163897 
2.013635 0.733896 -4.434483 
-3.389895 -0.106181 -1.017460 
2.899815 -0.611173 -1.116873 
0.546045 0.015128 -8.088541 
2.980026 -0.441617 -1.523861 
1.163477 2.109334 -5.005796 
1.046031 2.334131 -5.142330 
0.586729 3.125912 -1.357690 
-1.119180 -3.082570 -0.497705 
1.500165 -1.123780 -6.499947 
0.151275 -2.965724 -2.606496 
2.652679 -1.060702 -2.358589 
-1.835560 2.400772 -1.860570 
2.164944 0.346324 -5.452781 
2.241559 -0.061091 -4.811989 
-0.230691 0.790512 -7.873026 
-0.073216 3.263372 -0.189778 
-2.010663 2.237105 -0.184556 
1.958174 1.270694 -6.079886 
1.544803 -1.675949 -5.492348 
0.719231 -1.486927 -6.632852 
-2.774663 0.518752 -2.792795 
0.849758 -0.084368 -7.858045 
1.058338 -0.290048 -7.771775 
3.026446 -0.369493 -1.357715 
-0.240377 -0.555286 -8.408543 
-1.829019 -0.983902 -6.704908 
-2.643320 -0.828690 -3.722560 
-2.374573 -0.915622 -4.050874 
-1.899592 -0.237083 -6.332417 
-0.229573 -1.103026 -8.187902 
0.788425 -2.694529 -4.388464 
2.128564 0.707671 -4.337736 
-1.840304 -0.990972 -6.445194 
0.781586 2.824570 -1.941005 
1.501407 2.553547 -1.394082 
-1.513150 -0.095349 -7.621976 
1.406603 2.629118 -1.188545 
-0.947844 -3.044838 -0.622237 
-1.941633 1.810371 -4.826335 
-3.233916 0.008059 -1.055622 
1.452732 1.988057 -3.907477 
-1.076600 -2.268217 -3.969907 
-0.425252 -2.155211 -5.684489 
1.053519 -1.446198 -6.263429 
-0.746683 -0.805149 -7.752781 
0.005408 2.380553 -3.981873 
-1.636816 -0.612158 -6.822785 
-2.783139 -0.973175 -3.606207 
0.077305 2.621422 -4.024455 
-0.841858 -2.929213 -0.315134 
-1.940622 -0.938712 -6.618137 
-1.373429 -0.812553 -6.452411 
0.583273 3.100873 -1.480238 
-2.446864 -0.350063 -5.534508 
-1.766014 0.346723 -6.388941 
2.547339 0.143228 -4.881523 
1.861658 1.453766 -5.580177 
-1.500580 0.982410 -6.264976 
-2.270252 1.723779 -2.763917 
1.431945 -1.376686 -6.638700 
-1.563273 -2.352127 -2.886032 
-2.208995 -0.704808 -4.416296 
-2.214001 2.317171 -0.176708 
0.033315 -3.001416 -2.500056 
-2.718377 0.637543 -3.019412 
1.383645 -2.710785 -1.409230 
-2.264972 1.613522 -2.478832 
-2.667037 0.574981 -2.723688 
-1.609384 0.457157 -6.265946 
1.108037 1.959781 -4.972205 
1.599720 2.206011 -5.169335 
1.746394 0.923675 -5.353993 
0.379781 3.080088 -0.174787 
2.358686 -1.879053 -0.208141 
-0.020545 2.469882 -6.025715 
0.058715 3.161625 -2.807198 
-2.323640 -1.039392 -3.977654 
2.796340 -0.630864 -1.232829 
1.773046 1.381776 -5.872696 
-0.903980 -0.655026 -7.543298 
1.862697 1.167679 -6.429253 
2.084540 0.287074 -5.328786 
-2.013815 1.641248 -5.010671 
-0.849047 2.189919 -5.149788 
1.847713 1.348330 -6.489882 
-2.660461 -0.204137 -5.398203 
-2.063134 -1.289434 -5.517625 
1.328840 0.347670 -7.717821 
0.726255 -1.202365 -7.074778 
-1.564198 -1.112837 -5.565736 
-2.006849 -1.620049 -0.477322 
0.718601 0.143806 -7.945322 
-0.047628 2.526712 -4.020636 
0.742754 0.920072 -7.421206 
-0.152575 2.810364 -1.878703 
0.597561 0.220892 -8.192105 
0.959028 -0.238836 -7.514055 
-0.057256 -1.075837 -8.229064 
0.391668 0.967349 -7.437937 
0.008383 2.415171 -5.856146 
-1.383138 1.374111 -5.824590 
0.692665 -0.125479 -7.809749 
1.057585 -0.127314 -7.586379 
-1.345109 1.290679 -6.078580 
2.529102 0.707975 -3.910070 
-1.649790 1.179748 -5.871423 
1.777234 1.166485 -6.276356 
2.617750 0.137614 -4.737803 
[...]
POINT_DATA 16583 
VECTORS    Normal    double 
0.214802 0.873944 -0.435984 
-0.937530 0.006851 -0.347838 
-0.954926 -0.034099 -0.294880 
-0.708828 -0.674267 -0.207186 
0.809404 -0.094405 -0.579615 
0.406186 -0.913769 -0.006248 
0.370067 0.884000 -0.285649 
-0.302796 0.917307 -0.258578 
-0.867101 -0.453217 -0.206711 
0.120098 0.972067 -0.201650 
-0.724903 -0.557370 -0.404788 
0.726495 0.674422 -0.131760 
0.434246 -0.900773 -0.006280 
-0.935478 -0.013219 -0.353138 
0.967464 0.139081 -0.211353 
-0.747968 -0.629839 -0.209395 
0.589243 -0.807887 -0.010535 
-0.713929 -0.695497 -0.081178 
0.408433 0.912368 -0.027684 
0.641900 -0.618973 -0.452589 
0.709861 -0.571785 -0.411291 
0.012108 0.999849 -0.012459 
0.291590 -0.923757 -0.248289 
-0.995960 -0.089258 -0.009794 
-0.828275 -0.191441 -0.526602 
-0.342677 -0.928367 -0.143903 
0.945265 0.200573 -0.257381 
-0.991865 -0.123863 -0.029359 
-0.988764 -0.015736 -0.148652 
0.158312 0.966894 -0.200134 
0.399489 -0.916734 -0.002800 
-0.628168 0.124953 -0.767979 
-0.922385 0.383864 -0.043058 
0.364399 0.887612 -0.281706 
0.116104 0.992656 -0.033968 
-0.936356 -0.064482 -0.345079 
-0.161865 -0.981239 -0.104733 
0.875893 -0.461577 -0.140567 
0.620385 0.710218 -0.332735 
0.041533 0.996366 -0.074362 
0.564266 -0.159732 -0.809994 
0.432115 0.863417 -0.260361 
-0.907614 0.321482 -0.269973 
0.854600 -0.516793 -0.050828 
-0.742453 0.633533 -0.217714 
0.910697 0.361413 -0.200031 
-0.571202 0.817012 -0.078864 
0.763253 -0.581310 -0.282000 
0.969288 0.131609 -0.207748 
-0.912561 0.107642 -0.394520 
-0.867404 -0.048659 -0.495220 
0.909017 0.336393 -0.246025 
0.937329 0.315895 -0.147055 
0.913792 0.330318 -0.236376 
0.764034 -0.595708 -0.247758 
-0.261150 0.933720 -0.244883 
-0.280516 -0.914094 -0.292818 
-0.856006 -0.291745 -0.426776 
-0.992932 -0.118450 -0.007402 
0.566952 0.823602 -0.015680 
-0.146350 -0.987023 -0.066089 
-0.999299 0.031553 -0.020143 
-0.851438 0.069655 -0.519809 
-0.703300 0.662724 -0.257226 
0.468298 -0.220962 -0.855496 
0.286544 0.941492 -0.177444 
-0.088049 0.826675 -0.555749 
0.188238 0.941664 -0.278989 
-0.437771 -0.897165 -0.058745 
0.826918 0.556019 -0.083962 
0.714996 -0.688410 -0.121952 
-0.932963 -0.080420 -0.350873 
-0.929545 0.298543 -0.216374 
0.385800 -0.858326 -0.338282 
-0.904449 0.370069 -0.212182 
-0.629305 -0.777103 -0.009236 
-0.020380 0.998980 -0.040282 
0.134203 0.990899 -0.010434 
-0.803976 -0.585006 -0.106726 
-0.389906 -0.904896 -0.170692 
0.337534 -0.941112 -0.019479 
0.241982 -0.965667 -0.094510 
0.422796 0.899187 -0.112727 
-0.937847 -0.294897 -0.182969 
-0.596192 -0.597668 -0.536049 
0.877085 -0.457092 -0.147609 
-0.891204 0.325885 -0.315522 
-0.546911 0.830318 -0.107053 
-0.788649 0.569942 -0.230649 
0.000146 0.999924 -0.012332 
0.950139 0.275009 -0.146987 
-0.870350 -0.254867 -0.421348 
-0.975618 -0.000145 -0.219477 
-0.873637 -0.477888 -0.091553 
0.813152 -0.563181 -0.147009 
0.740256 -0.028880 -0.671705 
0.090498 -0.645981 -0.757970 
-0.063966 0.994368 -0.084500 
0.586744 0.787626 -0.188085 
0.075280 0.980554 -0.181235 
-0.932559 0.358124 -0.045609 
-0.997133 -0.060563 -0.045374 
-0.998236 0.053103 -0.026558 
-0.903028 0.427383 -0.043396 
-0.925065 -0.296590 -0.237252 
0.474473 -0.106978 -0.873745 
0.690036 -0.179056 -0.701276 
-0.582410 0.805743 -0.107596 
0.814210 0.493997 -0.305008 
-0.039171 -0.992969 -0.111707 
-0.657840 0.688953 -0.304286 
-0.556640 -0.830730 -0.006274 
0.958483 -0.197406 -0.205770 
-0.973391 -0.044110 -0.224864 
-0.954666 -0.121663 -0.271681 
-0.810640 -0.506329 -0.294097 
-0.913225 0.179989 -0.365547 
-0.775788 -0.302602 -0.553701 
-0.989825 0.006683 -0.142135 
-0.913191 -0.146944 -0.380118 
-0.546626 0.829828 -0.112183 
0.833609 -0.550056 -0.050343 
0.967773 -0.061711 -0.244144 
-0.194042 -0.929744 -0.312929 
-0.570743 -0.810952 -0.128878 
-0.400948 0.882478 -0.245913 
-0.486773 -0.866201 -0.112909 
-0.894796 -0.379328 -0.235478 
-0.966744 0.015335 -0.255285 
-0.998784 -0.048343 -0.009686 
-0.990486 0.030463 -0.134202 
-0.797357 -0.603088 -0.022537 
-0.199294 -0.906844 -0.371371 
-0.687891 0.700558 -0.189801 
-0.790015 -0.041976 -0.611649 
0.608694 0.772623 -0.180403 
-0.183179 -0.917209 -0.353798 
-0.540837 0.840830 -0.022363 
0.932763 0.334485 -0.134433 
-0.559720 -0.820040 -0.119364 
-0.995747 -0.078618 -0.048036 
0.774205 0.632814 -0.012334 
0.579147 0.805136 -0.127845 
-0.525847 0.850373 -0.018716 
-0.708774 0.611464 -0.351783 
-0.991346 0.006093 -0.131136 
0.570300 -0.776446 -0.268122 
-0.292960 -0.948197 -0.122868 
-0.932960 -0.291018 -0.211883 
0.591359 0.770806 -0.236964 
0.952986 0.246463 -0.176278 
0.228242 0.950871 -0.209165 
0.199439 0.957522 -0.208270 
-0.999809 0.011193 -0.016000 
0.411182 0.891475 -0.190268 
0.519170 0.843990 -0.134697 
-0.754970 0.615032 -0.227498 
-0.766712 0.629794 -0.124551 
-0.878176 -0.468520 -0.096413 
-0.843394 -0.294272 -0.449544 
0.733077 -0.556655 -0.390811 
0.511115 -0.759324 -0.402726 
-0.156248 0.965798 -0.206932 
-0.751673 0.578569 -0.316615 
-0.834650 -0.495929 -0.239613 
0.575781 0.806924 -0.131721 
0.649170 -0.266684 -0.712361 
-0.007807 0.252265 -0.967627 
-0.059531 0.940707 -0.333956 
0.144177 0.987748 -0.059720 
0.945593 -0.310856 -0.096038 
-0.554946 0.825644 -0.101723 
0.036687 -0.611136 -0.790675 
-0.090611 0.992644 -0.080291 
0.822324 -0.537445 -0.186909 
-0.391890 0.883107 -0.257964 
0.087688 0.994447 -0.058195 
-0.958895 0.256683 -0.120971 
-0.884386 -0.262182 -0.386164 
-0.857435 0.425503 -0.289400 
0.390519 -0.836989 -0.383334 
0.613373 -0.233214 -0.754576 
0.959819 -0.242344 -0.141480 
-0.687882 0.701033 -0.188074 
-0.135218 0.966833 -0.216680 
0.504885 0.861584 -0.052574 
0.314148 0.945723 -0.083183 
0.948021 -0.235782 -0.213688 
0.948350 -0.230598 -0.217844 
-0.554957 -0.821054 -0.133762 
-0.908106 -0.341390 -0.242480 
-0.957343 0.258983 -0.128150 
-0.852396 0.428957 -0.299027 
-0.925375 -0.340241 -0.167087 
-0.877254 0.299770 -0.374918 
-0.145748 -0.926662 -0.346489 
0.450421 -0.890905 -0.058388 
0.118903 0.992877 -0.007622 
0.449095 -0.886881 -0.108421 
0.141831 -0.984569 -0.102506 
-0.771554 0.625609 -0.115403 
0.865505 0.457639 -0.203635 
0.835763 0.510181 -0.203015 
-0.672242 0.740243 -0.011481 
-0.995150 -0.088569 -0.042790 
0.800780 0.598936 -0.005205 
0.258496 0.965695 -0.024741 
0.144188 0.987408 -0.065085 
-0.271268 -0.619195 -0.736893 
-0.119284 0.952653 -0.279685 
-0.081856 0.993796 -0.075296 
-0.298146 -0.954304 -0.020303 
-0.833322 0.548528 -0.068501 
0.988370 -0.142610 -0.052788 
0.768177 -0.640087 -0.013870 
0.758774 -0.651344 -0.003653 
0.531548 0.836015 -0.136145 
-0.307266 0.948227 -0.080331 
-0.818119 0.565297 -0.105453 
0.344063 0.919481 -0.190196 
0.800823 -0.565067 -0.198451 
0.919518 0.335130 -0.205366 
-0.998540 -0.031277 -0.044041 
0.977423 -0.206004 -0.046984 
0.513114 0.014215 -0.858202 
0.987108 -0.146282 -0.064951 
0.467539 0.847627 -0.250871 
0.394696 0.880731 -0.261778 
0.184162 0.981160 -0.058392 
-0.341193 -0.939752 -0.021299 
0.736583 -0.551778 -0.391134 
0.050605 -0.992106 -0.114735 
0.923692 -0.369348 -0.101859 
-0.605432 0.791858 -0.080083 
0.946558 0.151420 -0.284782 
0.971783 -0.026485 -0.234385 
-0.190584 0.653079 -0.732916 
-0.022429 0.999716 -0.008102 
-0.668443 0.743723 -0.007720 
0.788965 0.511974 -0.339731 
0.648920 -0.704009 -0.288573 
0.396469 -0.819654 -0.413498 
-0.975555 0.182390 -0.122581 
0.688756 -0.068383 -0.721761 
0.732914 -0.200862 -0.649993 
0.990969 -0.120985 -0.057827 
-0.191638 -0.442695 -0.875954 
-0.804107 -0.432561 -0.407801 
-0.940080 -0.294718 -0.171436 
-0.916383 -0.353352 -0.188106 
-0.921352 -0.114992 -0.371331 
-0.143592 -0.689913 -0.709508 
0.274471 -0.938036 -0.211551 
0.929541 0.309039 -0.201115 
-0.814460 -0.438573 -0.379880 
0.265765 0.960448 -0.083116 
0.505968 0.860534 -0.058975 
-0.825161 -0.051996 -0.562500 
0.471145 0.880629 -0.050153 
-0.297123 -0.954472 -0.026495 
-0.710098 0.662093 -0.239570 
-0.998969 0.002490 -0.045321 
0.580556 0.794488 -0.178168 
-0.421579 -0.888197 -0.182693 
-0.184354 -0.934322 -0.305051 
0.548175 -0.752497 -0.365038 
-0.518744 -0.559362 -0.646543 
0.002234 0.983441 -0.181217 
-0.843510 -0.315467 -0.434708 
-0.930794 -0.325469 -0.166413 
0.028954 0.981837 -0.187503 
-0.276195 -0.961010 -0.013238 
-0.826645 -0.399862 -0.395939 
-0.792237 -0.468706 -0.390737 
0.184482 0.980768 -0.063716 
-0.946775 -0.135451 -0.292011 
-0.907802 0.178229 -0.379645 
0.968525 0.054457 -0.242888 
0.752840 0.587891 -0.295999 
-0.778866 0.509913 -0.365180 
-0.790542 0.600250 -0.121423 
0.659527 -0.634076 -0.403698 
-0.549019 -0.826064 -0.127265 
-0.931874 -0.297326 -0.207867 
-0.690808 0.722999 -0.007513 
0.011032 -0.993890 -0.109821 
-0.964841 0.226285 -0.133708 
0.453804 -0.889075 -0.060061 
-0.809806 0.576890 -0.106831 
-0.970697 0.209271 -0.118125 
-0.895158 0.254276 -0.366110 
0.476975 0.843624 -0.246563 
0.566271 0.780886 -0.263731 
0.850279 0.449716 -0.273462 
0.122372 0.992457 -0.007374 
0.782115 -0.623074 -0.008714 
-0.007843 0.942924 -0.332915 
0.018420 0.991869 -0.125919 
-0.897308 -0.401377 -0.183670 
0.974191 -0.219781 -0.051470 
0.746793 0.581993 -0.321846 
-0.644495 -0.467002 -0.605421 
0.785256 0.492258 -0.375573 
0.952937 0.131234 -0.273293 
-0.750088 0.611318 -0.252306 
-0.348929 0.899980 -0.261312 
0.747481 0.545459 -0.379140 
-0.956992 -0.073430 -0.280667 
-0.811369 -0.507096 -0.290747 
0.777467 0.203412 -0.595121 
0.450629 -0.746047 -0.490251 
-0.779319 -0.554441 -0.291987 
-0.777966 -0.628021 -0.018943 
0.622196 0.124513 -0.772896 
-0.018517 0.982373 -0.186010 
0.514860 0.637773 -0.572856 
-0.054039 0.995378 -0.079382 
0.506918 0.187385 -0.841380 
0.759401 -0.189121 -0.622530 
-0.036538 -0.686552 -0.726162 
0.301038 0.743509 -0.597135 
0.003290 0.947734 -0.319044 
-0.672700 0.668310 -0.317547 
0.643015 -0.116485 -0.756943 
0.777071 -0.093545 -0.622422 
-0.677558 0.650140 -0.343851 
0.947128 0.265131 -0.180707 
-0.769990 0.550613 -0.322398 
0.779365 0.511535 -0.361833 
0.971057 0.051048 -0.233330 
0.963353 0.115625 -0.242037 
-0.049483 0.946278 -0.319546 
0.329846 -0.860695 -0.387823 
0.391112 0.901159 -0.186934 
0.524976 -0.698468 -0.486357 
0.337910 0.920498 -0.196217 
0.533601 -0.038052 -0.844880 
0.728305 -0.271367 -0.629232 
0.503963 0.830831 -0.236095 
-0.269796 -0.503207 -0.820971 
-0.914442 0.401881 -0.047830 
-0.129619 -0.843513 -0.521234 
-0.181939 -0.652706 -0.735441 
-0.026128 -0.644648 -0.764033 
0.041725 0.991575 -0.122626 
-0.646118 0.686973 -0.332566 
-0.107591 -0.498077 -0.860432 
-0.063803 -0.269077 -0.961003 
0.457041 -0.777975 -0.431124 
0.769461 0.330209 -0.546711 
0.429830 -0.811186 -0.396514 
0.607259 -0.013104 -0.794396 
0.809823 -0.550077 -0.203964 
0.523397 0.667387 -0.529764 
0.552324 -0.735489 -0.392421 
0.965303 -0.155443 -0.209829 
0.798137 0.255729 -0.545509 
-0.962064 0.036714 -0.270344 
-0.351402 0.880410 -0.318425 
-0.767974 0.545857 -0.335048 
-0.907704 -0.098443 -0.407901 
-0.353815 0.885224 -0.301982 
-0.990173 -0.016325 -0.138892 
0.549746 0.813566 -0.189447 
-0.664865 0.702559 -0.253704 
0.632271 -0.720761 -0.284144 
0.528489 -0.735994 -0.423099 
0.609226 0.748440 -0.262071 
-0.856292 -0.305256 -0.416633 
-0.096760 0.953244 -0.286292 
-0.167286 0.947520 -0.272437 
-0.100052 -0.928128 -0.358563 
0.181147 -0.961499 -0.206652 
0.864744 0.422441 -0.271590 
0.171496 -0.979901 -0.101895 
0.958628 0.222136 -0.178009 
-0.941070 -0.275018 -0.196855 
0.928097 -0.357092 -0.105452 
0.536924 0.637651 -0.552371 
0.095724 0.992794 -0.072091 
-0.778115 -0.501729 -0.377897 
-0.842780 -0.324317 -0.429582 
-0.927581 -0.069871 -0.367030 
0.131489 0.889130 -0.438359 
-0.938350 0.342553 -0.046434 
-0.699313 0.196685 -0.687223 
0.233225 -0.949418 -0.210265 
-0.284919 0.600601 -0.747061 
-0.298029 0.528609 -0.794828 
0.982553 -0.022325 -0.184638 
-0.999673 -0.024898 -0.005755 
-0.469394 -0.865459 -0.175073 
0.166780 -0.963597 -0.208960 
-0.089142 0.288803 -0.953230 
-0.624959 -0.586729 -0.514952 
-0.719885 0.202815 -0.663801 
-0.811342 -0.006654 -0.584534 
-0.147552 -0.937492 -0.315177 
0.727247 0.601942 -0.329815 
-0.593892 0.731755 -0.334404 
-0.668735 0.679538 -0.301697 
0.493161 0.836058 -0.240416 
-0.721848 0.613097 -0.321010 
-0.868059 0.338287 -0.363367 
-0.875393 0.333773 -0.349689 
0.594142 -0.750679 -0.288921 
-0.952579 0.271533 -0.137339 
0.647245 -0.711566 -0.273401 
0.937613 -0.332663 -0.101085 
-0.924853 -0.334607 -0.180789 
-0.073730 -0.842969 -0.532885 
0.541683 -0.674105 -0.502157 
0.755698 0.576741 -0.310306 
-0.172584 0.961489 -0.213902 
-0.851376 -0.465239 -0.242304 
0.565377 -0.783885 -0.256657 
0.759497 0.317210 -0.567928 
-0.909241 0.269129 -0.317569 
0.960092 -0.238922 -0.145397 
0.969941 -0.192481 -0.148878 
-0.913146 0.308589 -0.266340 
0.959982 0.222741 -0.169766 
0.813249 -0.579292 -0.055208 
-0.915446 0.127399 -0.381744 
-0.729704 0.646263 -0.223331 
-0.853887 0.516668 -0.062702 
0.165315 -0.980200 -0.108986 
0.288063 0.957353 -0.022267 
0.110327 0.991809 -0.064371 
-0.170034 0.964131 -0.203812 
0.751341 0.563738 -0.343054 
-0.711482 0.668261 -0.217305 
-0.174303 0.958757 -0.224506 
-0.773871 0.624290 -0.106708 
-0.149795 0.961856 -0.228899 
0.983809 -0.007531 -0.179061 
-0.433793 0.866066 -0.248504 
-0.989773 -0.134233 -0.048270 
-0.780627 0.616063 -0.105295 
-0.612779 0.729229 -0.304510 
0.471714 -0.722763 -0.505073 
-0.481961 0.816330 -0.318305 
0.434764 0.115862 -0.893060 
-0.719634 0.667834 -0.190062 
0.602386 -0.697421 -0.388246 
-0.518352 0.847570 -0.113737 
-0.557703 0.823470 -0.104233 
-0.615218 0.781408 -0.104442 
-0.234720 -0.662067 -0.711740 
-0.805311 -0.508884 -0.304157 
0.812528 -0.549008 -0.195932 
-0.292128 0.952465 -0.086435 
-0.700909 0.665987 -0.255319 
-0.874912 -0.287042 -0.390046 
0.970205 -0.017662 -0.241641 
0.784814 0.619656 -0.009609 
0.878773 0.428564 -0.209979 
0.763270 0.631959 -0.134340 
-0.535079 0.844478 -0.023401 
0.473167 0.879159 -0.056496 
0.940139 0.311144 -0.139026 
-0.758779 -0.260563 -0.596960 
-0.999524 0.002983 -0.030707 
-0.748592 0.621008 -0.232291 
-0.942047 0.332908 -0.041468 
-0.342008 0.936210 -0.080881 
-0.999282 0.021673 -0.031079 
0.406985 -0.911452 -0.060153 
0.358987 0.897420 -0.256450 
-0.557918 0.829404 -0.028586 
-0.386802 0.873843 -0.294590 
-0.998916 0.045600 -0.009371 
-0.688106 0.725601 -0.003802 
-0.996284 -0.085503 -0.010369 
0.136032 0.990611 -0.013584 
-0.796276 -0.604708 -0.016500 
-0.944517 0.325448 -0.044392 
-0.905552 -0.385852 -0.176333 
-0.562557 0.822906 -0.079726 
0.407917 -0.910924 -0.061810 
-0.551364 0.833811 -0.027499 
-0.326649 0.941143 -0.086895 
-0.998362 -0.031440 -0.047793 
-0.854293 -0.511920 -0.090125 
0.403851 -0.908684 -0.105818 
-0.595320 0.799402 -0.080937 
-0.145878 0.949279 -0.278546 
0.744924 -0.667091 -0.008768 
-0.267061 -0.963673 -0.003628 
-0.567897 0.814662 -0.117554 
0.983235 0.024479 -0.180691 
-0.881203 0.366714 -0.298332 
0.820741 0.501377 -0.273871 
-0.787278 -0.616131 -0.023996 
-0.771904 -0.554033 -0.311787 
0.630494 -0.728162 -0.268807 
-0.784843 0.510918 -0.350692 
-0.832406 0.420940 -0.360429 
-0.681986 0.660601 -0.313849 
0.822090 0.569279 -0.009393 
0.774419 0.617069 -0.139647 
-0.626043 -0.439550 -0.644101 
-0.904028 0.328921 -0.273028 
-0.884873 0.365556 -0.288736 
-0.411808 0.858317 -0.306115 
-0.943408 0.304272 -0.131911 
-0.962831 0.071548 -0.260456 
0.986202 -0.150445 -0.069078 
-0.736872 -0.336488 -0.586341 
0.110540 0.991104 -0.074126 
-0.385646 0.864712 -0.321792 
-0.971563 0.197330 -0.130864 
0.694605 -0.599094 -0.398260 
-0.975602 -0.004615 -0.219498 
-0.807203 -0.218540 -0.548328 
-0.999680 0.024625 -0.005744 
0.262908 -0.940268 -0.216276 
0.792643 0.522731 -0.313798 
0.594539 0.764662 -0.248628 
-0.804445 -0.593636 -0.021559 
0.796190 0.529640 -0.292511 
-0.529302 -0.848380 -0.009561 
-0.130335 -0.944055 -0.302940 
-0.035999 0.999320 -0.008026 
0.528937 -0.807831 -0.260067 
0.535966 -0.799083 -0.272410 
-0.669902 0.701889 -0.242040 
-0.769289 -0.629801 -0.107452 
-0.553521 -0.824842 -0.115109 
-0.575715 -0.817592 -0.009780 
0.792215 0.594846 -0.136212 
0.086798 0.988692 -0.122291 
0.024676 -0.992240 -0.121866 
-0.294740 -0.955543 -0.008189 
-0.789418 -0.473167 -0.391064 
-0.540212 0.833069 -0.119025 
-0.249406 -0.968360 -0.008659 
-0.523828 -0.851689 -0.015163 
-0.521584 -0.845071 -0.117491 
0.971581 0.019523 -0.235900 
0.382364 0.887946 -0.255636 
0.248484 0.946887 -0.204109 
0.754265 -0.021147 -0.656230 
0.044150 -0.340938 -0.939048 
0.966002 -0.003519 -0.258511 
0.764347 -0.095915 -0.637631 
0.667888 -0.689001 -0.281432 
-0.214477 -0.968923 -0.123240 
0.265377 0.865833 -0.424157 
-0.795611 -0.202091 -0.571106 
-0.850901 0.521394 -0.064151 
-0.973471 -0.041877 -0.224946 
-0.817705 -0.527947 -0.229411 
-0.858825 -0.503410 -0.094861 
0.786770 0.524383 -0.325601 
0.739331 0.565175 -0.366015 
-0.192570 0.589236 -0.784677 
0.247384 0.747550 -0.616418 
-0.962120 -0.022528 -0.271692 
-0.998201 -0.040656 -0.044069 
0.968025 0.023860 -0.249715 
0.862595 0.459326 -0.212011 
-0.999069 0.002764 -0.043056 
-0.797677 -0.593790 -0.105475 
0.948689 0.126360 -0.289867 
-0.792328 -0.600330 -0.108724 
0.371168 0.908409 -0.192423 
-0.832166 -0.466283 -0.300134 
0.146412 0.880500 -0.450870 
-0.392493 -0.917906 -0.058285 
0.547258 0.805814 -0.226211 
-0.999191 0.028425 -0.028452 
-0.745381 -0.594108 -0.302395 
0.930495 0.337588 -0.142175 
-0.852737 -0.463639 -0.240582 
0.925908 0.354481 -0.130529 
-0.838278 -0.494021 -0.230723 
-0.913709 -0.334759 -0.230376 
-0.939598 -0.276269 -0.202067 
-0.820781 -0.412099 -0.395593 
0.039073 -0.236205 -0.970917 
-0.133203 0.968565 -0.210093 
0.744798 0.652888 -0.137886 
-0.742635 0.226941 -0.630072 
0.806937 0.590478 -0.013722 
0.256242 0.966442 -0.018176 
-0.117669 0.968521 -0.219365 
-0.858098 -0.272896 -0.434966 
0.427254 -0.896802 -0.114895 
0.971444 -0.011274 -0.237000 
-0.488131 -0.854384 -0.178202 
-0.883607 -0.282451 -0.373443 
-0.904708 -0.142526 -0.401485 
-0.912636 0.405882 -0.048528 
-0.958496 -0.005804 -0.285047 
-0.463427 0.832406 -0.303867 
0.272528 0.940423 -0.203304 
-0.540553 0.833602 -0.113624 
-0.177934 -0.927471 -0.328842 
0.941887 -0.319165 -0.104798 
-0.797073 0.560034 -0.225914 
-0.557925 -0.821447 -0.118086 
-0.279769 -0.952529 -0.120075 
-0.341333 -0.939540 -0.027491 
-0.988408 -0.145599 -0.043030 
-0.950220 -0.087275 -0.299107 
-0.559669 -0.478609 -0.676539 
-0.248425 -0.960532 -0.125155 
-0.226276 -0.966430 -0.121705 
-0.891512 0.286156 -0.351172 
0.988736 -0.137794 -0.058433 
-0.505437 -0.855806 -0.110133 
-0.997924 0.058503 -0.026911 
0.986594 -0.149483 -0.065481 
0.955184 0.103383 -0.277372 
0.207514 -0.953722 -0.217607 
-0.169365 -0.937344 -0.304469 
-0.600695 0.793085 -0.100898 
0.981449 -0.183423 -0.055805 
-0.923712 0.381019 -0.039765 
-0.624941 -0.578923 -0.523734 
-0.552968 -0.624604 -0.551449 
0.797422 0.603362 -0.008534 
0.769557 0.638437 -0.013440 
-0.224110 -0.918036 -0.327084 
-0.359890 0.897418 -0.255187 
-0.174441 -0.821099 -0.543477 
-0.808198 0.457183 -0.371213 
0.226354 0.973825 -0.020698 
-0.123399 0.430901 -0.893922 
-0.890494 0.302163 -0.340173 
-0.112810 -0.823259 -0.556343 
-0.169144 -0.535213 -0.827609 
-0.908551 0.250914 -0.334032 
-0.790861 -0.099826 -0.603799 
-0.903335 0.343598 -0.256762 
-0.772018 -0.635057 -0.026294 
-0.892519 -0.257023 -0.370605 
-0.129025 -0.917586 -0.376017 
0.331743 -0.850216 -0.408755 
-0.291370 0.920500 -0.260352 
-0.244563 -0.915443 -0.319615 
0.968144 -0.044391 -0.246426 
-0.429139 0.841312 -0.328687 
0.183263 0.959808 -0.212564 
-0.566200 -0.605310 -0.559480 
-0.951218 -0.127338 -0.281015 
-0.921513 -0.100415 -0.375141 
-0.726060 0.224042 -0.650109 
0.023470 -0.687554 -0.725754 
-0.300226 -0.443732 -0.844373 
0.485731 -0.164316 -0.858525 
0.136069 -0.984602 -0.109748 
-0.830351 -0.318730 -0.457087 
0.591848 0.773554 -0.226564 
0.830441 0.516447 -0.208928 
0.898587 0.388225 -0.204504 
0.523177 0.808329 -0.269982 
0.692322 -0.599141 -0.402144 
0.985610 -0.161967 -0.048376 
-0.888019 0.249873 -0.385986 
0.298814 0.950595 -0.084143 
-0.050567 0.394890 -0.917336 
-0.960107 -0.066567 -0.271596 