# vtk DataFile Version 3.1
vtk output
ASCII
DATASET POLYDATA
POINTS 2158 float
0.265003 1.354404 -6.647316 
0.677316 1.704062 -5.420461 
2.040626 0.348478 -4.463052 
-2.489281 -0.173634 -0.219439 
-0.789924 -2.128589 -3.317797 
-1.591344 -0.109825 -6.137033 
-1.473813 0.119378 -6.424836 
2.154097 0.683585 -3.401536 
0.345091 2.471400 -0.253633 
0.810753 -2.355574 -0.522788 
-1.259192 1.228119 -5.670986 
-0.285239 -1.570645 -6.135239 
1.831717 0.971157 -4.448971 
1.967244 0.693669 -4.386959 
-1.313021 -0.733931 -6.367598 
-1.478370 0.453820 -6.262237 
1.641682 0.896228 -5.288399 
-1.472719 -1.016924 -5.563423 
-1.964446 -1.531925 -0.515179 
0.845147 -0.212709 -7.477907 
0.353020 0.855971 -7.410301 
0.650102 -0.123674 -7.691474 
0.706951 -0.960846 -7.010931 
0.420276 -0.005839 -7.858374 
0.673174 -1.301756 -6.458896 
0.559897 0.025649 -7.765261 
0.633802 0.842321 -7.231252 
-0.013328 0.244305 -7.930567 
-1.311496 1.089402 -5.830594 
-1.695987 -0.983260 -4.941656 
-1.142074 1.334649 -5.673816 
1.963182 -0.097487 -4.924582 
-0.257200 1.835330 -5.356286 
2.164569 0.016169 -3.979876 
-1.344910 0.864095 -6.127057 
-0.685103 -0.526294 -7.486029 
-0.725120 1.580136 -5.733806 
1.067324 -1.572540 -5.175705 
0.788848 -0.052788 -7.571216 
-1.705242 -1.054745 -4.754891 
-0.205689 0.576047 -7.730334 
1.929322 0.019369 -5.067934 
0.773960 1.988621 -4.145471 
1.123747 1.661930 -4.753165 
0.004501 -0.221330 -7.941187 
-1.042395 -1.909433 -3.915944 
-0.864399 1.519264 -5.702498 
-1.514599 0.544676 -6.097785 
1.831076 0.260529 -5.363278 
-2.294467 0.921908 -1.059708 
-1.525925 -0.218347 -6.275799 
0.915579 -1.231943 -6.292764 
1.659273 0.687598 -5.545219 
-1.267908 1.046520 -6.006054 
-1.477983 -0.108522 -6.421104 
1.207547 -1.386141 -5.406345 
1.278504 1.752861 -3.953595 
1.403212 1.671153 -3.878867 
-2.033730 -0.384675 -4.463668 
-1.325350 1.934245 -2.751350 
1.428371 1.690341 -3.695147 
-1.981872 -0.489251 -4.594360 
-2.052071 -0.194199 -4.502911 
0.098679 -1.966645 -4.907583 
-1.378252 1.925732 -2.540955 
-2.315328 0.151276 -2.955434 
-1.199647 2.013605 -2.757923 
-1.165044 2.057901 -2.572411 
-1.903087 -0.507715 -4.902714 
-2.366241 0.082934 -2.536314 
-2.331975 0.079419 -2.846001 
-1.278512 2.005235 -2.430935 
-1.960864 -0.402127 -4.769137 
1.318560 1.796160 -3.599860 
0.418906 -1.927553 -4.893390 
0.270737 -1.926478 -5.002400 
-2.349974 0.162353 -2.650067 
-1.631923 -1.814246 -1.687853 
-2.295056 0.071857 -3.143701 
1.023144 1.907423 -3.983471 
1.207512 2.089767 -2.029586 
1.083195 2.165485 -1.941125 
1.584493 1.791150 -2.278500 
-1.263001 -0.521228 -6.678517 
-1.252167 -1.950130 -2.966635 
1.519228 -1.061169 -5.348738 
1.334829 -1.311078 -5.283078 
-1.596535 -1.079875 -5.071515 
1.120352 -1.333005 -5.719901 
1.033164 -1.273256 -6.017697 
1.155904 1.886621 -3.689589 
0.277794 2.199397 -3.668808 
-0.082210 -2.452585 -1.479614 
-0.257899 1.880056 -5.194550 
-0.540263 1.911814 -4.839258 
1.221849 0.460699 -6.802027 
-0.131742 -2.470900 -1.059908 
1.567856 1.781915 -2.463058 
-0.180686 -2.290171 -3.122934 
-1.589828 0.111444 -6.140111 
1.590480 -0.157086 -6.130483 
1.877478 -0.037796 -5.262337 
0.474947 -0.449899 -7.694469 
-0.226308 2.082563 -4.346267 
-0.934651 1.047218 -6.597881 
0.587620 -1.861167 -4.977067 
0.695148 -2.272327 -2.447004 
-0.552929 -0.207614 -7.752541 
1.505532 0.971587 -5.559876 
0.405687 -1.555164 -6.107363 
0.024818 -2.413111 -2.032101 
-1.760544 -0.718300 -5.170654 
0.218534 -2.374727 -2.356056 
-0.731391 2.380189 -0.475331 
-0.638053 -2.326478 -2.049076 
-1.835126 0.483071 -5.187266 
-0.627110 -2.164682 -3.432522 
1.108999 1.750351 -4.452997 
-0.374407 -2.307575 -2.798252 
-1.785167 -1.339476 -3.577846 
-1.073221 -0.397655 -7.093588 
-1.461996 -1.691834 -3.550048 
-1.421821 -1.587627 -4.157783 
-0.313600 -1.696191 -5.770750 
-1.085618 -1.998012 -3.293855 
-1.201887 -1.878150 -3.589439 
-1.634787 -0.219646 -5.988114 
-0.574820 1.419390 -6.302113 
-2.292942 -0.437610 -2.831239 
-2.335460 -0.843363 -0.819554 
1.336542 -1.372919 -5.111747 
1.944864 0.642096 -4.565690 
0.238736 1.822295 -5.406853 
0.181019 1.726819 -5.736176 
1.016460 -1.714234 -4.807895 
1.362046 1.040758 -5.807084 
2.335138 0.582508 -2.121355 
-0.296376 -2.199267 -3.656183 
-1.837225 -1.122104 -4.043561 
2.204711 0.315388 -3.610763 
1.983862 0.468298 -4.609544 
-1.866291 -0.779764 -4.678033 
-1.812724 -1.587648 -2.084643 
1.756854 1.127091 -4.380443 
0.339001 2.016506 -4.582546 
1.141007 1.862510 -3.859604 
-1.422271 0.979898 -5.768274 
1.172709 -1.904805 -3.548777 
1.342794 -1.175772 -5.586790 
-0.074509 2.157718 -4.007915 
2.116568 0.295070 -4.129520 
-0.179983 1.745779 -5.677875 
-1.707969 1.182406 -4.424261 
2.240126 0.215492 -3.460509 
1.681728 -0.522555 -5.659152 
1.281676 -1.545126 -4.744857 
-1.123070 -0.201373 -7.099677 
1.679789 -1.242137 -4.371487 
-0.498515 -2.242994 -3.119372 
1.705220 1.548815 -3.081226 
1.168731 -1.594524 -4.872014 
-1.501498 -1.304865 -4.822507 
-2.078877 1.360399 -0.758091 
-0.428611 -2.345135 -2.364299 
-0.743659 -2.265024 -2.365538 
1.271609 -1.931847 -3.010189 
-0.353301 1.741227 -5.611429 
-0.524733 0.511096 -7.624220 
-1.087061 0.201837 -7.153307 
2.340796 0.495595 -2.274458 
2.354416 -0.018509 -2.645249 
0.213222 -1.129872 -7.084590 
0.835816 0.530107 -7.325416 
1.461748 1.387915 -4.717440 
-0.061530 -0.757077 -7.600162 
-1.773953 -0.803602 -4.992363 
1.749310 -0.929863 -4.857175 
2.130805 0.123427 -4.143337 
-0.514613 -1.799471 -5.282560 
-0.581222 2.069171 -4.065325 
-0.590386 0.198096 -7.726573 
1.662558 1.225273 -4.487983 
1.691178 1.305050 -4.133488 
2.080351 1.016808 -2.986030 
0.499822 2.106065 -3.974331 
0.466902 -1.812209 -5.283000 
0.459285 1.848320 -5.166099 
-1.732635 -1.708683 -1.782214 
1.952852 0.415874 -4.792988 
-1.738598 1.198937 -4.253005 
2.193039 0.537275 -3.411402 
0.631339 -2.376323 -1.385872 
-1.960856 -1.083487 -3.523676 
1.722488 1.674301 -2.163945 
-1.535333 0.966364 -5.482560 
-1.223573 -2.081211 -2.030865 
-1.951271 -0.103352 -4.965779 
2.268734 0.580734 -2.759246 
1.107765 0.046645 -7.148471 
1.110586 -1.740434 -4.489342 
0.514184 2.040620 -4.295413 
-1.647100 0.936130 -5.196797 
1.380600 2.068054 -0.693034 
-1.554964 1.762552 -2.701259 
0.306336 0.383547 -7.817688 
-0.009222 1.878359 -5.266895 
-0.513727 1.836768 -5.156588 
-1.324478 -2.082346 -1.210490 
-0.033542 -2.485303 -0.745675 
-0.128193 -1.129136 -7.107351 
1.765615 -0.811601 -5.010375 
1.629352 -1.466753 -3.823607 
1.856730 -0.214130 -5.293863 
-1.436462 -1.894790 -2.430751 
2.322186 -0.032631 -2.928375 
1.250524 -1.624896 -4.554442 
-1.065139 1.314751 -5.872201 
0.989466 -1.780374 -4.615637 
0.888294 -1.750638 -4.930886 
0.653871 -2.050794 -4.045184 
1.023911 1.835068 -4.308777 
-0.661840 1.712602 -5.410471 
-2.019042 -0.638713 -4.229306 
1.655083 -0.091661 -5.966788 
-0.106108 -2.382283 -2.358039 
-2.113628 1.281602 -1.093115 
1.917082 -0.954006 -4.105337 
1.416400 -2.014368 -1.319288 
1.091939 2.232901 -0.737086 
-0.461343 -2.358870 -2.151350 
1.044398 0.409772 -7.128004 
-0.479082 -2.217111 -3.333003 
1.510435 1.926552 -1.578388 
2.117127 1.209484 -1.714021 
-2.094505 1.104428 -2.535094 
-1.661656 -1.407551 -3.904094 
-0.361554 -1.860577 -5.196039 
-0.474810 -1.630004 -5.851134 
2.011692 1.402247 -1.495885 
1.701311 0.983343 -4.926590 
2.005536 -1.479419 -0.458603 
1.576215 -0.493318 -5.984025 
1.457574 1.160882 -5.313003 
-2.046115 0.202973 -4.522760 
-2.202661 0.456635 -3.460652 
-0.474949 1.685179 -5.695810 
2.096600 -1.348843 -0.370849 
1.695445 -0.865085 -5.164814 
1.696533 -0.223148 -5.812749 
0.253501 1.177930 -6.986827 
-1.707156 -1.500470 -3.302497 
-1.374895 -1.325507 -5.139906 
2.022134 0.833920 -3.852088 
1.482568 -1.843376 -2.556317 
-1.225709 -0.413898 -6.825524 
-0.136821 -1.231414 -6.929507 
0.617186 -0.330002 -7.659767 
1.552134 -0.369706 -6.134461 
-0.451911 -1.427546 -6.384486 
0.939321 0.179401 -7.371021 
2.158123 -0.160946 -3.980635 
0.954349 -2.220419 -2.003110 
-0.812162 1.877150 -4.581362 
1.812879 0.922965 -4.629355 
-1.345449 1.204281 -5.514964 
2.012675 -0.051774 -4.723037 
-0.573457 -2.302838 -2.474029 
-1.953726 -0.745751 -4.360451 
-1.494291 -1.241421 -5.013111 
1.572369 1.413461 -4.243929 
-0.254298 -2.359981 -2.469630 
0.049594 -2.458047 -1.391343 
-2.466777 -0.197555 -1.017614 
2.020467 0.116145 -4.674908 
2.057644 0.168667 -4.488107 
-2.108722 -1.218290 -1.752764 
-0.857131 -0.643019 -7.209033 
0.388457 -2.342632 -2.461241 
0.257762 2.475388 -0.648368 
1.094653 1.829135 -4.155704 
1.274265 1.186241 -5.722648 
0.947700 0.376453 -7.283569 
-0.002046 2.032844 -4.637346 
1.303150 0.480927 -6.630745 
0.053057 1.367601 -6.673977 
2.321728 -0.417754 -2.606938 
-0.490545 -0.391611 -7.724055 
-0.952128 -0.471709 -7.223185 
1.825054 1.525905 -2.411183 
-0.746825 1.779654 -5.068727 
1.845756 0.708675 -4.875466 
2.086867 0.727890 -3.717126 
-1.647695 -1.367855 -4.104042 
1.871647 0.759499 -4.692567 
-1.852976 -1.163121 -3.846653 
1.601332 1.090241 -5.036942 
1.259349 1.889564 -3.312467 
1.505580 -1.729069 -3.164465 
1.445466 -1.308617 -4.983619 
1.999048 -0.476278 -4.537885 
-2.230569 0.413258 -3.331077 
0.350507 1.906084 -5.035813 
1.425869 1.124583 -5.478815 
-0.264275 -2.455723 -1.163073 
1.733474 0.778213 -5.179438 
0.193166 1.917951 -5.078822 
1.148035 -1.230267 -5.895762 
1.337632 1.560684 -4.532568 
-1.548654 1.041690 -5.300637 
1.245155 1.737278 -4.128111 
1.724365 1.029961 -4.743201 
-1.691636 0.683256 -5.448861 
-1.511447 -1.761978 -2.935556 
1.984738 1.015605 -3.598773 
-1.358967 -1.828735 -3.262238 
1.774180 1.165659 -4.202439 
2.336428 -0.121387 -2.779080 
1.269186 2.087799 -1.649885 
-1.057666 2.171858 -2.014209 
0.139229 1.782699 -5.569686 
0.868255 1.984290 -3.968308 
0.791637 -2.025279 -3.923846 
2.167339 -1.202266 -0.966171 
0.358548 -2.386536 -2.038556 
-1.835402 -1.412402 -2.980392 
1.366565 1.299268 -5.233483 
-1.870485 -1.621434 -1.036297 
2.045087 -0.402249 -4.395423 
-1.594449 1.318164 -4.467769 
-1.177817 -0.716189 -6.652836 
0.501290 -2.110343 -3.953745 
[...]
POINT_DATA 2158 
VECTORS    Normal    double 
0.024350 0.108360 -0.050970 
0.032461 0.080142 -0.023594 
0.090902 0.016905 -0.018395 
-0.081833 -0.003957 0.000498 
-0.035895 -0.096438 -0.013083 
-0.093863 -0.009301 -0.035171 
-0.100376 0.011743 -0.042315 
0.070277 0.023207 -0.010605 
0.016500 0.110838 -0.001686 
0.031018 -0.088288 -0.002902 
-0.058730 0.056159 -0.024870 
-0.017205 -0.094276 -0.038944 
0.074420 0.038528 -0.018876 
0.081408 0.027583 -0.018975 
-0.082844 -0.049353 -0.038319 
-0.094691 0.031905 -0.037718 
0.076527 0.041100 -0.025750 
-0.079653 -0.057297 -0.028205 
-0.075650 -0.058830 -0.003248 
0.072009 -0.016173 -0.056772 
0.029259 0.076749 -0.066002 
0.063590 -0.008418 -0.077086 
0.054630 -0.069713 -0.051202 
0.059084 -0.000554 -0.088072 
0.033571 -0.071113 -0.035395 
0.068421 -0.000678 -0.102704 
0.052835 0.074028 -0.064803 
-0.004958 0.033678 -0.119451 
-0.062325 0.052522 -0.029916 
-0.082638 -0.049791 -0.022543 
-0.064239 0.077505 -0.032585 
0.087405 -0.003047 -0.020680 
-0.009318 0.063104 -0.017255 
0.086223 0.002029 -0.014888 
-0.081138 0.051143 -0.039248 
-0.062803 -0.051193 -0.070699 
-0.038296 0.085385 -0.030199 
0.053962 -0.076680 -0.026150 
0.065195 -0.005559 -0.063259 
-0.083666 -0.050101 -0.023932 
-0.028346 0.076348 -0.100760 
0.094763 -0.000386 -0.025148 
0.034218 0.083663 -0.016746 
0.046211 0.070598 -0.020517 
0.001523 -0.028827 -0.108603 
-0.047725 -0.087950 -0.015964 
-0.051983 0.088995 -0.032377 
-0.093663 0.031217 -0.038650 
0.094690 0.014799 -0.025907 
-0.088779 0.036383 -0.001398 
-0.093967 -0.010557 -0.037849 
0.051688 -0.067188 -0.036240 
0.082125 0.033253 -0.028512 
-0.076999 0.063575 -0.033070 
-0.091248 -0.009560 -0.038467 
0.052358 -0.058801 -0.023434 
0.045181 0.061846 -0.014839 
0.057187 0.068160 -0.013848 
-0.085568 -0.017872 -0.018017 
-0.042231 0.059939 -0.008485 
0.055412 0.066218 -0.015607 
-0.090896 -0.020648 -0.021181 
-0.088557 -0.006572 -0.019253 
0.004325 -0.097581 -0.022117 
-0.046600 0.065672 -0.008768 
-0.063018 0.003022 -0.007500 
-0.037860 0.065499 -0.008692 
-0.035623 0.061841 -0.008008 
-0.093017 -0.022757 -0.023976 
-0.075269 0.003912 -0.008020 
-0.071963 0.003591 -0.008692 
-0.042902 0.067954 -0.006653 
-0.089218 -0.020248 -0.020854 
0.051673 0.069772 -0.012007 
0.019715 -0.094990 -0.021999 
0.014396 -0.096806 -0.026257 
-0.077722 0.004056 -0.008296 
-0.062448 -0.069124 -0.005162 
-0.064993 0.002985 -0.008818 
0.041872 0.075509 -0.015528 
0.047385 0.083127 -0.009632 
0.041865 0.081771 -0.006087 
0.065995 0.074511 -0.011603 
-0.085174 -0.032163 -0.044415 
-0.054366 -0.084634 -0.011043 
0.086723 -0.058942 -0.027810 
0.063193 -0.062825 -0.021818 
-0.082670 -0.053987 -0.026846 
0.060320 -0.068527 -0.029719 
0.058404 -0.068367 -0.032897 
0.051450 0.085362 -0.018528 
0.009843 0.091463 -0.015590 
-0.002584 -0.083130 -0.005626 
-0.008838 0.059700 -0.016784 
-0.021784 0.072091 -0.017070 
0.087682 0.032619 -0.044074 
-0.005533 -0.092694 -0.002855 
0.067571 0.076842 -0.008011 
-0.007709 -0.103202 -0.015183 
-0.095248 0.009611 -0.035690 
0.093159 -0.006755 -0.033481 
0.093307 -0.000387 -0.024780 
0.054879 -0.053276 -0.094477 
-0.010429 0.082915 -0.016925 
-0.066240 0.076201 -0.049233 
0.030347 -0.092372 -0.025708 
0.029120 -0.093582 -0.011110 
-0.055898 -0.016888 -0.070249 
0.069577 0.044517 -0.026969 
0.024043 -0.086781 -0.035643 
0.000808 -0.112066 -0.007302 
-0.088855 -0.038416 -0.024730 
0.009288 -0.106302 -0.008744 
-0.032321 0.098842 0.000549 
-0.027984 -0.099478 -0.007183 
-0.093782 0.022747 -0.026125 
-0.028305 -0.098262 -0.016776 
0.041907 0.069005 -0.017605 
-0.016291 -0.103484 -0.013678 
-0.075508 -0.056089 -0.016145 
-0.073152 -0.029890 -0.046274 
-0.064102 -0.074694 -0.013708 
-0.064707 -0.073103 -0.017053 
-0.017341 -0.093501 -0.028739 
-0.048305 -0.088957 -0.012737 
-0.053695 -0.084316 -0.014116 
-0.095915 -0.010076 -0.034481 
-0.043133 0.099886 -0.041915 
-0.072808 -0.012827 -0.007513 
-0.091118 -0.032585 -0.004464 
0.071993 -0.070995 -0.027835 
0.086061 0.029601 -0.018495 
0.010124 0.086941 -0.025753 
0.008672 0.094344 -0.028461 
0.046245 -0.080853 -0.020915 
0.058987 0.044806 -0.026087 
0.085475 0.019790 -0.007983 
-0.013841 -0.101382 -0.014894 
-0.079586 -0.049575 -0.015905 
0.087758 0.011309 -0.014497 
0.087886 0.019436 -0.021159 
-0.089508 -0.035640 -0.022812 
-0.073627 -0.064550 -0.009686 
0.072554 0.047500 -0.016318 
0.010743 0.072647 -0.015952 
0.044993 0.074779 -0.012633 
-0.067157 0.046920 -0.025506 
0.046826 -0.077381 -0.013078 
0.059489 -0.050399 -0.023568 
-0.001513 0.091278 -0.015876 
0.088315 0.013678 -0.016170 
-0.007104 0.080661 -0.027545 
-0.076862 0.052248 -0.016872 
0.079699 0.008811 -0.011596 
0.092536 -0.026701 -0.030389 
0.058720 -0.073682 -0.021397 
-0.077125 -0.011187 -0.047581 
0.071830 -0.051074 -0.018141 
-0.022084 -0.100839 -0.015191 
0.063538 0.056018 -0.010698 
0.059610 -0.078225 -0.024695 
-0.074924 -0.063601 -0.024839 
-0.090268 0.058014 -0.001751 
-0.019879 -0.105460 -0.008886 
-0.032859 -0.098496 -0.008605 
0.049301 -0.073769 -0.012155 
-0.017052 0.081638 -0.024343 
-0.062830 0.063509 -0.090172 
-0.095766 0.014493 -0.062183 
0.089157 0.020548 -0.008463 
0.090807 -0.002552 -0.009842 
0.014947 -0.087461 -0.050771 
0.068210 0.044301 -0.062835 
0.051429 0.049140 -0.015394 
-0.007206 -0.080610 -0.076102 
-0.090105 -0.038781 -0.025665 
0.080390 -0.040573 -0.021069 
0.088769 0.003720 -0.017485 
-0.026831 -0.093445 -0.028779 
-0.020747 0.078229 -0.014303 
-0.057667 0.018439 -0.077033 
0.065827 0.047490 -0.018295 
0.065158 0.050664 -0.014038 
0.081773 0.040853 -0.012471 
0.023432 0.090529 -0.016029 
0.024989 -0.092672 -0.028153 
0.018936 0.080180 -0.022539 
-0.069045 -0.068282 -0.008213 
0.093131 0.021082 -0.021020 
-0.074402 0.051765 -0.020222 
0.081411 0.018732 -0.012621 
0.024060 -0.092320 -0.004230 
-0.080473 -0.043851 -0.015450 
0.071099 0.069470 -0.006678 
-0.080378 0.052452 -0.026923 
-0.049910 -0.084147 -0.006758 
-0.091552 -0.007020 -0.022755 
0.089545 0.021100 -0.010178 
0.084048 0.002184 -0.057037 
0.048939 -0.079239 -0.019008 
0.022337 0.081701 -0.016177 
-0.084758 0.049898 -0.024697 
0.057870 0.087588 -0.001312 
-0.054554 0.063116 -0.009618 
0.043347 0.047754 -0.095803 
-0.001125 0.065659 -0.018298 
-0.020442 0.069603 -0.019781 
-0.044731 -0.070768 -0.005119 
-0.001969 -0.095619 -0.001812 
-0.010225 -0.088199 -0.051597 
0.081646 -0.039700 -0.023651 
0.063730 -0.056046 -0.015118 
0.092325 -0.012299 -0.026432 
-0.059752 -0.079123 -0.011319 
0.072922 -0.002322 -0.008333 
0.058620 -0.073652 -0.021130 
-0.060623 0.073308 -0.030964 
0.048097 -0.083814 -0.022487 
0.044946 -0.085379 -0.024911 
0.029842 -0.091708 -0.018950 
0.047742 0.081880 -0.018135 
-0.033150 0.084014 -0.027548 
-0.084648 -0.028154 -0.016623 
0.101155 -0.007746 -0.037412 
-0.005326 -0.107018 -0.008888 
-0.093815 0.054780 -0.004116 
0.070727 -0.036901 -0.014916 
0.051192 -0.073642 -0.003742 
0.042381 0.086225 -0.001408 
-0.019096 -0.101647 -0.010463 
0.079972 0.031860 -0.057530 
-0.022043 -0.100919 -0.013268 
0.051653 0.067181 -0.004782 
0.093402 0.052055 -0.008203 
-0.074336 0.037795 -0.008675 
-0.073104 -0.061197 -0.018124 
-0.018566 -0.095059 -0.024044 
-0.027233 -0.092490 -0.035009 
0.079867 0.053885 -0.006378 
0.073672 0.043332 -0.019513 
0.070382 -0.051462 -0.002971 
0.090497 -0.025707 -0.033767 
0.065979 0.052330 -0.025562 
-0.085991 0.006660 -0.016128 
-0.072606 0.013626 -0.009611 
-0.019820 0.072321 -0.024764 
0.074541 -0.048037 0.000633 
0.081646 -0.039441 -0.023134 
0.095284 -0.010479 -0.031005 
0.026016 0.105659 -0.061858 
-0.071966 -0.062873 -0.015028 
-0.071991 -0.067624 -0.027669 
0.075072 0.030075 -0.014887 
0.054446 -0.068672 -0.008380 
-0.081471 -0.030369 -0.043513 
-0.010361 -0.089658 -0.051688 
0.059312 -0.034068 -0.071803 
0.096689 -0.026132 -0.038793 
-0.029656 -0.091132 -0.043155 
0.075709 0.013760 -0.061976 
0.089311 -0.008282 -0.016724 
0.036803 -0.086866 -0.006569 
-0.029292 0.071148 -0.017832 
0.077362 0.040320 -0.018041 
-0.058176 0.054093 -0.022917 
0.096535 -0.003417 -0.023023 
-0.024458 -0.100468 -0.011966 
-0.087900 -0.032141 -0.020102 
-0.073662 -0.062940 -0.022899 
0.066416 0.059464 -0.019401 
-0.010798 -0.105423 -0.012158 
0.001815 -0.097434 -0.004398 
-0.108110 -0.008083 -0.002199 
0.098966 0.006971 -0.021029 
0.094722 0.006182 -0.021217 
-0.085181 -0.049083 -0.008333 
-0.065301 -0.051846 -0.052951 
0.017039 -0.099931 -0.011652 
0.010196 0.090167 -0.003088 
0.038305 0.066798 -0.015869 
0.054119 0.051081 -0.021540 
0.081356 0.032120 -0.056453 
0.000717 0.081256 -0.016790 
0.086836 0.032546 -0.046458 
0.001201 0.100817 -0.048603 
0.098215 -0.015823 -0.009928 
-0.045703 -0.039094 -0.068846 
-0.072214 -0.033204 -0.053501 
0.078438 0.066103 -0.008003 
-0.033039 0.075258 -0.020885 
0.085025 0.033702 -0.020591 
0.076903 0.027751 -0.012577 
-0.073393 -0.061842 -0.016532 
0.081366 0.031918 -0.021197 
-0.078868 -0.048768 -0.017256 
0.071634 0.048142 -0.023523 
0.055356 0.081000 -0.012622 
0.056213 -0.065598 -0.010825 
0.072778 -0.068829 -0.025066 
0.072702 -0.016105 -0.015464 
-0.072665 0.014823 -0.012153 
0.016264 0.083131 -0.020479 
0.064022 0.050939 -0.021903 
-0.009353 -0.092580 -0.005278 
0.081302 0.037358 -0.022232 
0.006563 0.073511 -0.019808 
0.062947 -0.070898 -0.032328 
0.050337 0.061334 -0.016425 
-0.073358 0.047832 -0.025857 
0.046775 0.063646 -0.013939 
0.073980 0.043272 -0.021063 
-0.086708 0.036856 -0.026433 
-0.064321 -0.075126 -0.010687 
0.076501 0.038374 -0.014078 
-0.059426 -0.080205 -0.012390 
0.070417 0.045824 -0.017819 
0.090868 -0.002891 -0.010391 
0.041517 0.067599 -0.004409 
-0.043469 0.085733 -0.007753 
0.008771 0.087694 -0.028259 
0.039812 0.095754 -0.018270 
0.034109 -0.089041 -0.015651 
0.067211 -0.036367 -0.003878 
0.014973 -0.102166 -0.007002 
-0.075132 -0.057599 -0.013355 
0.059923 0.056924 -0.020478 
-0.071925 -0.062508 -0.002713 
0.071415 -0.015559 -0.014656 
-0.067735 0.056666 -0.020560 
-0.078212 -0.050626 -0.042139 
0.022128 -0.095306 -0.016122 
-0.064018 -0.074185 -0.015654 
0.046456 0.075998 -0.024481 
-0.071451 0.021126 -0.011089 
0.086455 0.023543 -0.023322 
-0.013898 -0.101505 -0.016813 
-0.081717 -0.053711 -0.025305 
0.014587 0.095289 -0.011510 
0.089655 0.051726 -0.009694 
0.001500 0.100630 -0.010946 
0.111317 0.013908 -0.000615 
0.082537 -0.065025 -0.035717 
0.036738 -0.069072 -0.027356 
0.078407 -0.035929 -0.024313 
-0.001331 0.065868 -0.103381 
-0.067162 0.010427 -0.055419 
-0.001972 -0.095813 -0.002997 
-0.088787 0.071512 -0.053566 
-0.095791 0.010004 -0.035076 
-0.021200 0.079046 -0.015072 
0.034002 -0.089465 -0.021663 
-0.089786 0.023634 -0.028494 
0.087815 0.015913 -0.018768 
0.012280 0.088958 -0.018407 
-0.085296 0.019112 -0.021984 
-0.093074 -0.026265 -0.029859 
-0.060219 -0.076883 -0.020954 
-0.072120 -0.051361 -0.046328 
-0.090629 0.026599 -0.032167 
-0.069103 0.056244 -0.017225 
0.073616 -0.046078 -0.026948 
-0.080015 -0.051760 -0.043211 
0.087527 -0.026188 -0.024800 
0.046794 -0.077054 -0.013922 
0.016649 -0.096849 -0.019552 
0.030158 0.087004 -0.001614 
-0.058142 -0.014116 -0.061428 
-0.030764 0.072443 -0.017089 
-0.059886 -0.076910 -0.019074 
-0.105848 0.015191 -0.056051 
-0.047355 0.109189 -0.045496 
-0.009795 -0.095933 -0.000597 
0.014860 0.091663 -0.003621 
0.076466 -0.039816 -0.018335 
-0.067773 -0.065912 -0.005379 
0.043976 0.089268 -0.003359 
0.050698 -0.072758 -0.004842 
-0.078111 -0.061338 -0.033369 
0.007781 -0.094386 -0.026047 
-0.030037 -0.093090 -0.040879 
0.033782 -0.072852 -0.033884 
0.024735 -0.095945 -0.012700 
0.074590 -0.040232 -0.010634 
-0.026522 -0.090999 -0.031435 
-0.094552 -0.026727 -0.030200 
0.063944 -0.057225 -0.004531 
0.023833 0.093242 -0.017101 
-0.042990 -0.092991 -0.011375 
0.101631 -0.008354 -0.003806 
0.044580 -0.080141 -0.010329 
-0.088309 -0.041333 -0.027589 
-0.077146 0.033177 -0.005624 
0.067633 -0.034676 -0.012753 
0.000528 0.085185 -0.018318 
-0.053808 -0.084089 -0.016148 
-0.062364 -0.074481 -0.023275 
0.058950 -0.062740 -0.013671 
-0.054919 0.086073 -0.036718 
-0.072661 -0.063887 -0.007608 
0.029332 -0.094599 -0.009694 
-0.058955 -0.075329 -0.008165 
-0.009827 -0.096265 -0.001848 
-0.068138 -0.069355 -0.011888 
-0.053870 -0.082904 -0.017510 
-0.005380 0.071407 -0.016864 
0.009968 0.090733 -0.015008 
-0.066545 -0.070619 -0.020898 
-0.057665 -0.078197 -0.025828 
-0.083157 -0.036900 -0.015203 
-0.030055 -0.098870 -0.013529 
-0.048371 -0.088724 -0.014763 
-0.087106 0.006614 -0.023868 
0.072335 -0.019834 -0.009312 
-0.076175 -0.058873 -0.020478 
0.092831 0.000094 -0.004896 
-0.010617 0.067888 -0.013449 
-0.009348 -0.095104 -0.026239 
0.036997 0.091600 -0.004824 
-0.092689 -0.036682 -0.011466 
-0.084530 -0.005536 -0.017317 
-0.068500 -0.067877 -0.016854 
-0.088741 -0.006330 -0.020026 
0.096144 0.036672 -0.012376 
0.050274 0.071485 -0.008058 
-0.016715 -0.092825 -0.034835 
-0.017601 -0.094150 -0.031468 
-0.086047 -0.015580 -0.011491 
-0.082252 -0.005584 -0.016295 
-0.088178 -0.035271 -0.021917 
0.115456 0.030403 -0.002743 
0.008009 -0.096407 -0.028724 
-0.087364 -0.009696 -0.041940 
-0.079879 -0.033197 -0.049190 
-0.071082 -0.019355 -0.008791 
-0.077748 -0.051252 -0.012539 
0.087023 -0.007539 -0.050592 
-0.012914 0.091653 -0.002381 
0.091966 0.010190 -0.013321 
0.085003 0.069392 -0.016207 
-0.044542 0.029903 -0.108701 
0.053186 0.077880 -0.013821 
0.050012 0.088156 -0.007530 
0.097155 0.009729 -0.011329 
-0.020539 -0.099216 -0.018452 
-0.083035 -0.041416 -0.017444 
-0.099768 0.039240 -0.048322 
-0.070104 -0.066325 -0.018638 
-0.075933 -0.056793 -0.014480 
0.060001 0.056432 -0.027278 
-0.088090 -0.026434 -0.001426 
-0.075095 -0.057909 -0.011383 
-0.068191 -0.069048 -0.013869 
0.058378 0.055383 -0.022485 
0.087912 0.018834 -0.011950 
-0.072477 -0.064357 -0.010274 
0.089994 0.050662 -0.007052 
-0.063410 -0.075237 -0.025443 
0.084387 0.057543 -0.005993 
-0.048607 -0.077015 -0.004035 
0.073919 -0.038812 -0.015109 
0.090366 0.010005 -0.022729 
0.020043 -0.096049 -0.023776 
0.079015 -0.027549 -0.018345 
-0.018243 0.073513 -0.014717 
-0.054929 -0.082438 -0.008106 
0.077913 -0.061672 -0.034231 
-0.049531 -0.088381 -0.009729 
-0.030097 -0.099244 -0.011637 
0.040256 0.082180 -0.029327 
-0.005419 -0.109316 -0.010909 
-0.089916 -0.041871 -0.028799 
0.094071 -0.012754 -0.027399 
0.087760 -0.024366 -0.027268 
-0.015336 -0.110867 -0.007528 
-0.011210 -0.082710 -0.005335 
0.083727 0.002285 -0.054235 
0.071297 -0.050092 -0.019057 
-0.086734 -0.031888 -0.019200 
-0.059165 -0.078550 -0.017470 
-0.067204 -0.070877 -0.022795 
-0.046917 -0.065240 -0.002766 
-0.025316 -0.093808 -0.001821 
-0.085898 0.030769 -0.016632 
0.052015 -0.071467 -0.009823 
0.090774 0.025066 -0.023211 
-0.013908 0.089273 -0.014335 
-0.093328 -0.016155 -0.002989 
0.051873 0.100776 -0.054566 
-0.063030 0.086595 -0.045132 
-0.037363 0.068044 -0.016125 
-0.085936 -0.037755 -0.001420 
0.044038 -0.080400 -0.015842 
0.049414 -0.074188 -0.011367 
-0.055933 0.034209 -0.065835 
0.110463 0.006048 -0.004194 
0.024811 -0.096618 -0.011326 
0.052187 0.090517 -0.005438 
-0.058517 -0.006857 -0.048286 
0.076299 -0.062327 -0.043067 
0.028109 0.080449 -0.021309 
-0.082895 -0.047851 -0.006105 
-0.079523 -0.053090 -0.005029 
-0.067962 -0.067358 -0.006410 
0.031786 0.101362 -0.013346 
-0.056123 0.087294 -0.036608 
0.053442 0.060975 -0.024597 
-0.073139 -0.012891 -0.010928 
0.080270 0.036610 -0.023585 
-0.082319 -0.009774 -0.045809 
-0.092021 0.007933 -0.026772 
-0.035897 -0.090237 -0.031626 
-0.088163 -0.036441 -0.006031 
-0.107252 0.007533 -0.001915 
-0.008619 -0.085277 -0.003561 
-0.075993 0.011590 -0.008359 
0.104806 -0.015025 -0.002523 
-0.085846 0.020582 -0.024677 
0.069739 -0.053872 -0.004405 
-0.082363 0.024246 -0.006068 
0.074059 -0.032393 -0.025053 
0.000916 -0.079366 -0.039615 
0.054145 -0.068285 -0.013153 
0.079211 -0.043445 -0.003165 
-0.096861 -0.009522 -0.031304 
-0.071545 0.036248 -0.007637 
-0.064003 0.062548 -0.009662 
0.087584 -0.007356 -0.048375 
0.072461 0.070443 -0.013016 
0.076557 0.017469 -0.006679 
-0.005836 -0.096482 0.000634 
0.081811 -0.052899 -0.002207 
-0.005662 -0.094622 -0.004160 
0.000595 -0.108943 -0.009823 
0.022397 -0.099310 -0.008412 
0.065954 0.033198 -0.011726 
0.008109 -0.095147 -0.005463 
0.030766 -0.090035 -0.006651 
-0.098593 0.056206 -0.005410 
-0.073457 -0.010143 -0.000901 
0.067696 -0.056755 -0.006841 
0.077488 0.055580 -0.008059 
0.036975 -0.086990 -0.007866 
0.101481 -0.029753 0.000805 
-0.036654 0.117824 -0.075442 
-0.020235 0.091936 -0.001206 
-0.019273 0.086400 -0.007256 
0.027382 0.099342 -0.008912 
-0.054589 -0.081729 -0.009814 
-0.075973 0.043307 -0.004161 
0.052265 0.082250 -0.007489 
0.046814 0.074121 -0.012158 
-0.063885 -0.002767 -0.005088 
-0.036493 0.071866 -0.006607 
0.043519 -0.081090 -0.035907 
-0.062247 0.031399 -0.006973 
0.079576 0.006758 -0.010538 
0.089261 -0.014073 -0.022985 
-0.069491 0.044440 -0.008556 
0.066883 -0.056364 -0.010222 
-0.072804 0.024287 -0.003520 
0.072545 -0.026576 -0.012632 
-0.000407 0.091560 -0.018359 
0.028051 -0.081338 -0.028379 
-0.064192 0.043644 -0.012526 
0.068906 -0.049597 -0.049923 
0.096191 -0.026043 -0.038701 
0.080798 -0.026331 -0.021332 
-0.085889 0.066715 -0.042337 
0.094682 -0.002771 -0.009920 
-0.095341 0.059849 -0.042374 
-0.028200 -0.098280 -0.014761 
0.075429 -0.053463 -0.020823 
-0.080504 -0.053672 -0.006853 
-0.054387 -0.084363 -0.013025 
-0.047395 0.100037 -0.080193 
-0.095030 -0.008880 -0.031916 
-0.016228 -0.103156 -0.011810 
-0.077456 -0.050706 -0.014320 
-0.083076 -0.011506 -0.001224 
-0.066981 0.046799 -0.025260 
0.093052 0.048257 -0.005490 
-0.067102 -0.070820 -0.028436 
-0.081036 -0.057899 -0.030046 
-0.089416 0.035198 -0.049804 
-0.091096 0.026635 -0.032688 
-0.088383 0.023238 -0.028138 
-0.072045 -0.063329 -0.013145 
0.067266 -0.062897 -0.020694 
0.079750 -0.012328 -0.009773 
0.084395 -0.038916 -0.026599 
-0.073211 0.004226 -0.016522 
-0.085015 -0.028085 -0.017431 
0.074129 -0.051609 -0.021923 
0.075671 -0.018032 -0.012491 
-0.107968 0.009193 -0.022118 
-0.074550 -0.053176 -0.047653 
-0.066288 0.019847 -0.011341 
-0.002777 -0.092078 -0.005870 
-0.027848 0.096729 -0.093502 
0.064332 -0.057759 -0.003385 
0.099155 0.036071 -0.006407 
0.049443 0.078248 -0.010612 
-0.004478 0.059452 -0.014029 
0.067409 0.060844 -0.017253 
0.067983 -0.064829 -0.022258 
0.041174 -0.084428 -0.017189 
-0.075233 0.070132 -0.029222 
0.029783 -0.091187 -0.023926 
-0.072260 -0.017084 -0.080448 
0.084140 -0.042622 -0.037693 
-0.050556 0.017606 -0.090461 
-0.092572 -0.024300 -0.026645 
-0.020892 0.096116 -0.003383 
-0.020148 0.068886 -0.019113 
-0.020779 0.105957 -0.039104 
-0.072427 0.034706 -0.064068 
0.078881 0.036424 -0.016214 
0.062042 -0.061675 -0.008160 
-0.005976 0.110880 -0.075405 
-0.088729 -0.044786 -0.032049 
0.045134 0.055381 -0.015596 
0.053451 -0.064847 -0.067607 
-0.035967 -0.096288 -0.015114 
-0.084889 0.010857 -0.047239 
-0.034179 0.081755 -0.032134 
0.078288 0.020036 -0.014301 
0.083069 0.021657 -0.014341 
0.088022 0.008724 -0.009870 
-0.025045 0.104644 -0.044352 
0.030686 -0.088164 -0.033290 
-0.008391 0.087247 -0.027165 
0.030566 -0.089718 -0.005377 
-0.038339 -0.088244 -0.038491 
0.057181 0.077286 -0.015404 
-0.026656 0.068505 -0.014334 
-0.036123 0.080424 -0.024026 
0.077479 -0.039153 -0.020398 
-0.083126 -0.041164 -0.018620 
0.010666 0.088794 -0.003850 
0.099573 0.038040 -0.012705 
-0.029563 -0.019781 -0.083299 
0.048943 0.054140 -0.018880 
0.031834 -0.091689 -0.012551 
0.079454 0.018278 -0.012323 
-0.010931 0.081681 -0.015470 
-0.021997 0.069347 -0.018469 
-0.031064 0.078870 -0.024448 
0.072356 0.046247 -0.025647 
0.003790 0.075113 -0.018296 
0.011745 0.084391 -0.017252 
0.026884 0.094134 -0.029463 
0.043586 0.086634 -0.007960 
0.080007 -0.012128 -0.009350 
0.081731 -0.057450 -0.025033 
0.051770 -0.068512 -0.061035 
-0.004852 0.081404 -0.009842 
0.082300 -0.021280 -0.036478 
0.072363 -0.056228 -0.047331 
0.078653 -0.053840 -0.025995 
0.022243 0.093217 -0.014499 
0.034760 0.081510 -0.018396 
0.087226 0.022450 -0.005051 
-0.078359 -0.004590 -0.014554 
-0.012468 0.067824 -0.017189 