# vtk DataFile Version 3.1
vtk output
ASCII
DATASET POLYDATA
POINTS 4260 FLOAT
2.83277e-16          -1    -3.14159
-0.104528 -0.994522  -3.14159
 0.104528 -0.994522  -3.14159
-0.207912 -0.978148  -3.14159
 0.207912 -0.978148  -3.14159
-0.309017 -0.951057  -3.14159
 0.309017 -0.951057  -3.14159
-0.406737 -0.913545  -3.14159
 0.406737 -0.913545  -3.14159
     -0.5 -0.866025  -3.14159
      0.5 -0.866025  -3.14159
-0.587785 -0.809017  -3.14159
 0.587785 -0.809017  -3.14159
-0.669131 -0.743145  -3.14159
 0.669131 -0.743145  -3.14159
-0.743145 -0.669131  -3.14159
 0.743145 -0.669131  -3.14159
-0.809017 -0.587785  -3.14159
 0.809017 -0.587785  -3.14159
-0.866025      -0.5  -3.14159
0.866025     -0.5 -3.14159
-0.913545 -0.406737  -3.14159
 0.913545 -0.406737  -3.14159
-0.951057 -0.309017  -3.14159
 0.951057 -0.309017  -3.14159
-0.978148 -0.207912  -3.14159
 0.978148 -0.207912  -3.14159
-0.994522 -0.104528  -3.14159
 0.994522 -0.104528  -3.14159
          -1 -5.66554e-16     -3.14159
       1        0 -3.14159
-0.994522  0.104528  -3.14159
0.994522 0.104528 -3.14159
-0.978148  0.207912  -3.14159
0.978148 0.207912 -3.14159
-0.951057  0.309017  -3.14159
0.951057 0.309017 -3.14159
-0.913545  0.406737  -3.14159
0.913545 0.406737 -3.14159
-0.866025       0.5  -3.14159
0.866025      0.5 -3.14159
-0.809017  0.587785  -3.14159
0.809017 0.587785 -3.14159
-0.743145  0.669131  -3.14159
0.743145 0.669131 -3.14159
-0.669131  0.743145  -3.14159
0.669131 0.743145 -3.14159
-0.587785  0.809017  -3.14159
0.587785 0.809017 -3.14159
    -0.5 0.866025 -3.14159
     0.5 0.866025 -3.14159
-0.406737  0.913545  -3.14159
0.406737 0.913545 -3.14159
-0.309017  0.951057  -3.14159
0.309017 0.951057 -3.14159
-0.207912  0.978148  -3.14159
0.207912 0.978148 -3.14159
-0.104528  0.994522  -3.14159
0.104528 0.994522 -3.14159
-1.83697e-16            1     -3.14159
-0.052336  -0.99863   -3.0509
0.052336 -0.99863  -3.0509
-0.156434 -0.987688   -3.0509
 0.156434 -0.987688   -3.0509
-0.258819 -0.965926   -3.0509
 0.258819 -0.965926   -3.0509
-0.358368  -0.93358   -3.0509
0.358368 -0.93358  -3.0509
 -0.45399 -0.891007   -3.0509
  0.45399 -0.891007   -3.0509
-0.544639 -0.838671   -3.0509
 0.544639 -0.838671   -3.0509
 -0.62932 -0.777146   -3.0509
  0.62932 -0.777146   -3.0509
-0.707107 -0.707107   -3.0509
 0.707107 -0.707107   -3.0509
-0.777146  -0.62932   -3.0509
0.777146 -0.62932  -3.0509
-0.838671 -0.544639   -3.0509
 0.838671 -0.544639   -3.0509
-0.891007  -0.45399   -3.0509
0.891007 -0.45399  -3.0509
 -0.93358 -0.358368   -3.0509
  0.93358 -0.358368   -3.0509
-0.965926 -0.258819   -3.0509
 0.965926 -0.258819   -3.0509
-0.987688 -0.156434   -3.0509
 0.987688 -0.156434   -3.0509
 -0.99863 -0.052336   -3.0509
  0.99863 -0.052336   -3.0509
-0.99863 0.052336  -3.0509
 0.99863 0.052336  -3.0509
-0.987688  0.156434   -3.0509
0.987688 0.156434  -3.0509
-0.965926  0.258819   -3.0509
0.965926 0.258819  -3.0509
-0.93358 0.358368  -3.0509
 0.93358 0.358368  -3.0509
-0.891007   0.45399   -3.0509
0.891007  0.45399  -3.0509
-0.838671  0.544639   -3.0509
0.838671 0.544639  -3.0509
-0.777146   0.62932   -3.0509
0.777146  0.62932  -3.0509
-0.707107  0.707107   -3.0509
0.707107 0.707107  -3.0509
-0.62932 0.777146  -3.0509
 0.62932 0.777146  -3.0509
-0.544639  0.838671   -3.0509
0.544639 0.838671  -3.0509
-0.45399 0.891007  -3.0509
 0.45399 0.891007  -3.0509
-0.358368   0.93358   -3.0509
0.358368  0.93358  -3.0509
-0.258819  0.965926   -3.0509
0.258819 0.965926  -3.0509
-0.156434  0.987688   -3.0509
0.156434 0.987688  -3.0509
-0.052336   0.99863   -3.0509
0.052336  0.99863  -3.0509
6.12323e-17          -1    -2.96021
-0.104528 -0.994522  -2.96021
 0.104528 -0.994522  -2.96021
-0.207912 -0.978148  -2.96021
 0.207912 -0.978148  -2.96021
-0.309017 -0.951057  -2.96021
 0.309017 -0.951057  -2.96021
-0.406737 -0.913545  -2.96021
 0.406737 -0.913545  -2.96021
     -0.5 -0.866025  -2.96021
      0.5 -0.866025  -2.96021
-0.587785 -0.809017  -2.96021
 0.587785 -0.809017  -2.96021
-0.669131 -0.743145  -2.96021
 0.669131 -0.743145  -2.96021
-0.743145 -0.669131  -2.96021
 0.743145 -0.669131  -2.96021
-0.809017 -0.587785  -2.96021
 0.809017 -0.587785  -2.96021
-0.866025      -0.5  -2.96021
0.866025     -0.5 -2.96021
-0.913545 -0.406737  -2.96021
 0.913545 -0.406737  -2.96021
-0.951057 -0.309017  -2.96021
 0.951057 -0.309017  -2.96021
-0.978148 -0.207912  -2.96021
 0.978148 -0.207912  -2.96021
-0.994522 -0.104528  -2.96021
 0.994522 -0.104528  -2.96021
          -1 -5.66554e-16     -2.96021
          1 2.77556e-17    -2.96021
-0.994522  0.104528  -2.96021
0.994522 0.104528 -2.96021
-0.978148  0.207912  -2.96021
0.978148 0.207912 -2.96021
-0.951057  0.309017  -2.96021
0.951057 0.309017 -2.96021
-0.913545  0.406737  -2.96021
0.913545 0.406737 -2.96021
-0.866025       0.5  -2.96021
0.866025      0.5 -2.96021
-0.809017  0.587785  -2.96021
0.809017 0.587785 -2.96021
-0.743145  0.669131  -2.96021
0.743145 0.669131 -2.96021
-0.669131  0.743145  -2.96021
0.669131 0.743145 -2.96021
-0.587785  0.809017  -2.96021
0.587785 0.809017 -2.96021
    -0.5 0.866025 -2.96021
     0.5 0.866025 -2.96021
-0.406737  0.913545  -2.96021
0.406737 0.913545 -2.96021
-0.309017  0.951057  -2.96021
0.309017 0.951057 -2.96021
-0.207912  0.978148  -2.96021
0.207912 0.978148 -2.96021
-0.104528  0.994522  -2.96021
0.104528 0.994522 -2.96021
-1.83697e-16            1     -2.96021
-0.052336  -0.99863  -2.86952
0.052336 -0.99863 -2.86952
-0.156434 -0.987688  -2.86952
 0.156434 -0.987688  -2.86952
-0.258819 -0.965926  -2.86952
 0.258819 -0.965926  -2.86952
-0.358368  -0.93358  -2.86952
0.358368 -0.93358 -2.86952
 -0.45399 -0.891007  -2.86952
  0.45399 -0.891007  -2.86952
-0.544639 -0.838671  -2.86952
 0.544639 -0.838671  -2.86952
 -0.62932 -0.777146  -2.86952
  0.62932 -0.777146  -2.86952
-0.707107 -0.707107  -2.86952
 0.707107 -0.707107  -2.86952
-0.777146  -0.62932  -2.86952
0.777146 -0.62932 -2.86952
-0.838671 -0.544639  -2.86952
 0.838671 -0.544639  -2.86952
-0.891007  -0.45399  -2.86952
0.891007 -0.45399 -2.86952
 -0.93358 -0.358368  -2.86952
  0.93358 -0.358368  -2.86952
-0.965926 -0.258819  -2.86952
 0.965926 -0.258819  -2.86952
-0.987688 -0.156434  -2.86952
 0.987688 -0.156434  -2.86952
 -0.99863 -0.052336  -2.86952
  0.99863 -0.052336  -2.86952
-0.99863 0.052336 -2.86952
 0.99863 0.052336 -2.86952
-0.987688  0.156434  -2.86952
0.987688 0.156434 -2.86952
-0.965926  0.258819  -2.86952
0.965926 0.258819 -2.86952
-0.93358 0.358368 -2.86952
 0.93358 0.358368 -2.86952
-0.891007   0.45399  -2.86952
0.891007  0.45399 -2.86952
-0.838671  0.544639  -2.86952
0.838671 0.544639 -2.86952
-0.777146   0.62932  -2.86952
0.777146  0.62932 -2.86952
-0.707107  0.707107  -2.86952
0.707107 0.707107 -2.86952
-0.62932 0.777146 -2.86952
 0.62932 0.777146 -2.86952
-0.544639  0.838671  -2.86952
0.544639 0.838671 -2.86952
-0.45399 0.891007 -2.86952
 0.45399 0.891007 -2.86952
-0.358368   0.93358  -2.86952
0.358368  0.93358 -2.86952
-0.258819  0.965926  -2.86952
0.258819 0.965926 -2.86952
-0.156434  0.987688  -2.86952
0.156434 0.987688 -2.86952
-0.052336   0.99863  -2.86952
0.052336  0.99863 -2.86952
6.12323e-17          -1    -2.77883
-0.104528 -0.994522  -2.77883
 0.104528 -0.994522  -2.77883
-0.207912 -0.978148  -2.77883
 0.207912 -0.978148  -2.77883
-0.309017 -0.951057  -2.77883
 0.309017 -0.951057  -2.77883
-0.406737 -0.913545  -2.77883
 0.406737 -0.913545  -2.77883
     -0.5 -0.866025  -2.77883
      0.5 -0.866025  -2.77883
-0.587785 -0.809017  -2.77883
 0.587785 -0.809017  -2.77883
-0.669131 -0.743145  -2.77883
 0.669131 -0.743145  -2.77883
-0.743145 -0.669131  -2.77883
 0.743145 -0.669131  -2.77883
-0.809017 -0.587785  -2.77883
 0.809017 -0.587785  -2.77883
-0.866025      -0.5  -2.77883
0.866025     -0.5 -2.77883
-0.913545 -0.406737  -2.77883
 0.913545 -0.406737  -2.77883
-0.951057 -0.309017  -2.77883
 0.951057 -0.309017  -2.77883
-0.978148 -0.207912  -2.77883
 0.978148 -0.207912  -2.77883
-0.994522 -0.104528  -2.77883
 0.994522 -0.104528  -2.77883
          -1 -1.22465e-16     -2.77883
          1 5.55112e-17    -2.77883
-0.994522  0.104528  -2.77883
0.994522 0.104528 -2.77883
-0.978148  0.207912  -2.77883
0.978148 0.207912 -2.77883
-0.951057  0.309017  -2.77883
0.951057 0.309017 -2.77883
-0.913545  0.406737  -2.77883
0.913545 0.406737 -2.77883
-0.866025       0.5  -2.77883
0.866025      0.5 -2.77883
-0.809017  0.587785  -2.77883
0.809017 0.587785 -2.77883
-0.743145  0.669131  -2.77883
0.743145 0.669131 -2.77883
-0.669131  0.743145  -2.77883
0.669131 0.743145 -2.77883
-0.587785  0.809017  -2.77883
0.587785 0.809017 -2.77883
    -0.5 0.866025 -2.77883
     0.5 0.866025 -2.77883
-0.406737  0.913545  -2.77883
0.406737 0.913545 -2.77883
-0.309017  0.951057  -2.77883
0.309017 0.951057 -2.77883
-0.207912  0.978148  -2.77883
0.207912 0.978148 -2.77883
-0.104528  0.994522  -2.77883
0.104528 0.994522 -2.77883
-1.83697e-16            1     -2.77883
-0.052336  -0.99863  -2.68814
0.052336 -0.99863 -2.68814
-0.156434 -0.987688  -2.68814
 0.156434 -0.987688  -2.68814
-0.258819 -0.965926  -2.68814
 0.258819 -0.965926  -2.68814
-0.358368  -0.93358  -2.68814
0.358368 -0.93358 -2.68814
 -0.45399 -0.891007  -2.68814
  0.45399 -0.891007  -2.68814
-0.544639 -0.838671  -2.68814
 0.544639 -0.838671  -2.68814
 -0.62932 -0.777146  -2.68814
  0.62932 -0.777146  -2.68814
-0.707107 -0.707107  -2.68814
 0.707107 -0.707107  -2.68814
-0.777146  -0.62932  -2.68814
0.777146 -0.62932 -2.68814
-0.838671 -0.544639  -2.68814
 0.838671 -0.544639  -2.68814
-0.891007  -0.45399  -2.68814
0.891007 -0.45399 -2.68814
 -0.93358 -0.358368  -2.68814
  0.93358 -0.358368  -2.68814
-0.965926 -0.258819  -2.68814
 0.965926 -0.258819  -2.68814
-0.987688 -0.156434  -2.68814
 0.987688 -0.156434  -2.68814
 -0.99863 -0.052336  -2.68814
  0.99863 -0.052336  -2.68814
-0.99863 0.052336 -2.68814
 0.99863 0.052336 -2.68814
-0.987688  0.156434  -2.68814
0.987688 0.156434 -2.68814
-0.965926  0.258819  -2.68814
0.965926 0.258819 -2.68814
-0.93358 0.358368 -2.68814
 0.93358 0.358368 -2.68814
[...]
POINT_DATA 4260
SCALARS Field double
LOOKUP_TABLE default
1.87948
0.302382
2.48598
-1.43436
1.81151
-2.43596
0.204238
-2.18493
-1.50795
-0.806961
-2.4438
0.992118
-2.12253
2.28764
-0.709645
2.4122
1.06808
1.29827
2.29615
-0.486178
2.34366
-2.02715
1.1867
-2.53414
-0.579673
-1.74566
-2.04666
-0.0630353
-2.45999
1.65354
-1.60744
2.52592
0.0727345
2.1085
1.71612
0.615175
2.47715
-1.18961
1.9643
-2.38239
0.440548
-2.35481
-1.31083
-1.12392
-2.38888
0.677433
-2.23913
2.12495
-0.938078
2.47824
0.845559
1.5598
2.19376
-0.155707
2.41246
-1.78508
1.38832
-2.49145
-0.352702
-1.91428
0.323283
1.89144
-1.41391
2.48388
-2.42502
1.79694
-2.18794
0.184633
-0.821772
-1.52297
0.972927
-2.44722
2.27297
-2.11332
2.40802
-0.693122
1.30503
1.08299
-0.473249
2.30145
-2.0152
2.33629
-2.52879
1.17001
-1.74821
-0.597597
-0.0702589
-2.05699
1.6472
-2.4576
2.52497
-1.59344
2.11363
0.0915686
0.622901
1.73066
-1.18491
2.48047
-2.38509
1.95517
-2.36521
0.424005
-1.13757
-1.32597
0.667669
-2.39439
2.12514
-2.23166
2.48994
-0.920855
1.5787
0.864177
-0.138037
2.20437
-1.77716
2.40932
-2.49761
1.37224
-1.93231
-0.374685
0.344455
-1.39402
1.90431
-2.41548
2.48297
-2.19292
1.78353
-0.838642
0.165956
0.952223
-1.53738
2.25782
-2.45026
2.40464
-2.10383
1.31371
-0.676301
-0.457865
1.09823
-2.00104
2.30699
-2.52217
2.32888
-1.75088
1.15289
-0.078962
-0.616298
1.6385
-2.06829
2.52146
-2.45612
2.11677
-1.58008
0.629766
0.110077
-1.17976
1.7451
-2.38624
2.48373
-2.37345
1.94582
-1.1491
0.407099
0.659406
-1.34143
2.12586
-2.39995
2.5011
-2.2237
1.59618
-0.902543
-0.122245
0.884323
-1.77113
2.21665
-2.50527
2.40761
-1.95112
1.357
-0.396621
-1.37498
0.365332
-2.40734
1.91733
-2.19965
2.48252
-0.857177
1.7707
0.93042
0.147907
2.24259
-1.55114
2.40237
-2.45264
1.32447
-2.09361
-0.440051
-0.658737
-1.98488
1.11414
-2.51473
2.313
-1.75427
2.32162
-0.089718
1.13556
1.62704
-0.635484
2.51535
-2.0802
2.1183
-2.45522
0.636473
-1.56716
-1.17334
0.128245
-2.38513
1.75915
-2.37917
2.48644
-1.15861
1.93573
0.652129
0.389317
2.12633
-1.35765
2.51094
-2.40589
1.61175
-2.21554
-0.108429
-0.883388
-1.76667
0.905848
-2.51374
2.23059
-1.96992
2.40755
-0.417782
1.34312
-1.35696
-2.40037
0.385415
-2.20758
1.9298
-0.876731
2.4818
0.908088
1.75792
2.22763
0.130188
2.4013
-1.56433
1.33715
-2.45427
-0.420099
-2.0826
-1.96713
-0.64038
-2.5069
1.13074
-1.75873
2.31954
-0.102808
2.31472
1.6127
1.11841
2.50682
-0.654654
2.11866
-2.09219
0.643655
-2.45444
-1.16495
-1.55444
-2.38123
0.146108
-2.3822
1.77272
-1.16632
2.48842
0.64525
1.92466
2.12579
0.370427
2.51879
-1.37494
1.62501
-2.41262
-0.0965733
-2.20772
-1.76328
-0.864016
-2.52225
0.928186
-1.98782
2.24587
-0.437392
2.40919
1.33103
-2.3942
-1.33999
-2.216
0.404322
-0.89648
1.94119
0.885936
2.48032
2.2133
1.74484
2.40136
0.112611
1.35137
-1.57708
-0.398584
-2.45536
-1.94833
-2.07104
-2.49905
-0.621561
-1.76444
1.1478
-0.118192
2.32658
1.59575
2.30838
2.49625
1.10186
2.11835
-0.673268
0.651855
-2.10377
-1.15415
-2.45345
-2.37434
-1.54169
-2.3826
0.163813
-1.17264
1.78596
0.638155
2.48985
2.12359
1.91279
2.52414
0.350498
1.63572
-1.39344
-0.086497
-2.4206
-1.76048
-2.20096
-2.53006
-0.845273
-2.00401
0.950526
-0.454838
2.26194
1.32101
2.41238
-2.38847
-2.22425
-1.32404
-0.915573
0.421886
0.864676
1.95133
2.19994
2.47799
2.40242
1.73142
1.36655
0.0950785
-0.376261
-1.58967
-1.92914
-2.45638
-2.49155
-2.05957
-1.77143
-0.602837
-0.135541
1.16494
1.57669
2.33407
2.48421
2.30282
2.11789
1.08625
0.66146
-0.691019
-1.14077
-2.11472
-2.3645
-2.45211
-2.38072
-1.52875
-1.1781
0.18168
0.630231
1.79935
2.11918
2.49134
2.52667
1.9007
1.64395
0.329877
-0.0778528
-1.41316
-1.75768
-2.43022
-2.53651
-2.19598
-2.01796
-0.828038
-0.469812
0.97204
1.31307
2.27815
2.41677
-2.23183
-2.38294
-0.933366
-1.30902
0.844907
0.438226
2.18786
1.96042
2.4043
2.47511
1.3821
1.71789
-0.353935
0.0775735
-1.91028
-1.60243
-2.48479
-2.45796
-1.77957
-2.04892
-0.154374
-0.584801
1.55621
1.18188
2.47141
2.34197
2.11781
2.29816
0.672703
1.07164
-1.12484
-0.707994
-2.35204
-2.12524
-2.3771
-2.45053
-1.18336
-1.51551
0.620851
0.200145
2.11216
1.81363
2.52632
2.49375
1.64998
1.88917
-0.0700817
0.309076
-1.75421
-1.43396
-2.54107
-2.44167
-2.02942
-2.19322
-0.48237
-0.812934
1.30684
0.992036
2.4218
2.29383
-2.23859
-0.949555
-2.37754
0.827005
-1.29479
2.17725
0.453694
2.40685
1.96904
1.39748
2.47228
-0.332374
1.70466
-1.89246
0.0601143
-2.47906
-1.6158
-1.78871
-2.46074
-0.174116
-2.03966
1.53509
-0.567809
2.45852
1.19856
2.11849
2.35037
0.685659
2.29435
-1.10663
1.05776
-2.33748
-0.724707
-2.37237
-2.1359
-1.18907
-2.44908
0.609469
-1.5019
2.10224
0.219702
2.52318
1.8296
1.65427
2.49794
-0.0624349
1.87889
-1.74934
0.288593
-2.54327
-1.45553
-2.03832
-2.45481
-0.492933
-2.19268
1.30158
-0.800121
2.42666
1.01009
2.30832
-0.964244
-2.24476
0.810988
-2.37239
2.16816
-1.28116
2.40996
0.468848
1.41229
1.97801
-0.312184
2.47028
-1.8762
1.69214
-2.47464
0.0426486
-1.79864
-1.63013
-0.194153
-2.46519
1.51407
-2.03206
2.44613
-0.551783
2.12021
1.21518
0.700168
2.35937
-1.0866
2.29115
-2.3214
1.04392
-2.36713
-0.742044
-1.19576
-2.14748
0.595748
-2.44817
2.08932
-1.48787
2.51746
0.24077
1.65739
1.84778
-0.0541387
2.50441
-1.74229
1.87032
-2.5426
0.268842
-2.04471
-1.47734
-0.502117
-2.469
1.29633
-2.19377
2.43034
-0.789296
2.32092
1.02603
-0.977963
0.796531
-2.25084
2.16048
-2.36775
2.41354
-1.26791
1.42632
0.48436
-0.293707
1.98815
-1.8619
2.46976
-2.47166
1.6806
-1.80913
0.0250328
-0.213909
-1.64573
1.49384
-2.4714
2.43476
-2.02586
2.12302
-0.536217
0.71585
1.23225
-1.06539
2.36906
-2.30447
2.28813
-2.36189
1.02928
-1.20366
-0.760992
0.579644
-2.16072
2.07351
-2.44812
2.50945
-1.47342
1.6598
0.263466
-0.0445538
1.86823
-1.73237
2.51307
-2.53862
1.86342
-2.04862
0.250149
-0.510514
-1.49864
1.29003
-2.48313
2.43172
-2.19538
2.33091
-0.779789
1.03984
0.783056
-0.991528
2.15395
-2.25757
2.41759
-2.36392
1.43963
-1.2548
-0.27702
0.500865
-1.8497
2.00015
-2.47019
2.4711
-1.81995
1.67002
-0.232871
0.00703939
1.47504
-1.66272
2.4248
-2.47908
2.12685
-2.02034
0.732168
-0.520257
-1.04383
1.25036
-2.28744
2.3795
-2.35702
2.28474
-1.21272
1.01299
0.561516
-0.782297
2.0553
-2.17605
2.49956
-2.44906
1.66183
-1.45862
-0.0333332
0.287459
-1.71923
1.89029
-2.53101
2.52319
-2.05
1.85777
-0.518548
0.232756
1.2818
-1.5184
2.42979
-2.49573
2.33754
-2.19611
1.05144
-0.770784
0.76982
2.14828
-1.00584
2.42225
-2.26566
1.45252
-2.36111
-0.261896
-1.24153
-1.83954
0.518863
-2.47022
2.01436
-1.83097
2.47429
-0.250636
1.66004
1.45819
-0.0116667
2.41663
-1.68101
2.13166
-2.48761
0.748502
-2.01451
-1.02284
-0.502912
-2.27113
1.27002
-2.35285
2.3906
-1.22265
2.28047
0.542139
0.9945
2.03552
-0.806197
2.48835
-2.19336
1.66369
-2.45085
-0.0205648
-1.44369
-1.70298
0.311931
-2.5198
1.91264
-2.04884
2.53345
-0.526369
1.85266
1.27121
0.216915
2.42382
-1.53546
2.34018
-2.50522
1.06074
-2.19462
-0.761636
2.14316
0.756065
2.42774
-1.02177
1.46553
-2.27565
-0.247787
-2.35939
-1.83115
-1.22782
-2.47176
0.538664
-1.84222
2.03073
-0.267057
2.47885
1.44365
1.65004
2.41063
-0.0314614
2.13746
-1.70039
0.764342
-2.49618
-1.00334
-2.00731
-2.25646
-0.483371
-2.34981
1.29152
-1.23307
2.40213
0.522526
2.27501
2.01536
0.973829
2.47668
-0.832219
1.66553
-2.21194
-0.00671348
-2.45305
-1.68431
-1.42902
-2.50552
0.335601
-2.04531
1.93351
-0.533872
2.54224
1.25831
1.84732
2.41363
0.202946
2.33847
-1.54873
1.06752
-2.51027
-0.752037
-2.18993
2.13832
2.43436
0.741146
1.47943
-1.03992
-0.233899
-2.28778
-1.82408
-2.35856
-2.47478
-1.21335
-1.85396
0.560315
-0.282335
2.04881
1.43155
2.48392
2.40712
1.63919
2.14449
-0.0526721
0.779503
-1.72053
-0.986044
-2.50398
-2.24433
-1.99791
-2.34843
-0.461239
-1.24376
1.31474
0.503703
2.4138
1.99626
2.26834
2.46566
0.951615
1.66761
-0.859144
0.00757524
-2.23056
-1.66445
-2.45511
-2.48931
-1.4151
-2.03993
0.356959
-0.540906
1.95099
1.24364
2.54808
2.39972
1.84113
2.33255
0.191176
1.07163
-1.55734
-0.742045
-2.51011
-2.18172
2.44239
2.13346
1.49504
0.724546
-0.219248
-1.06059
-1.81764
-2.30192
-2.47925
-2.35819
-1.86669
-1.19776
-0.29706
0.583633
1.42159
2.06784
2.40628
2.48847
2.15317
1.62666
0.794206
-0.0755332
-0.971224
-1.74103
-2.23543
-2.51039
-2.34941
-1.98596
-1.25483
-0.436684
0.486431
1.33914
1.97955
2.42522
2.45659
2.2608
1.67048
0.929066
0.0217001
-0.885236
-1.64487
-2.24769
-2.47276
-2.45641
-2.03372
-1.4025
-0.547462
0.374592
1.22808
1.96349
2.3832
2.54986
2.32317
1.83382
1.0732
0.181867
-0.732009
-1.56096
-2.17034
-2.50472
2.45192
1.51304
2.12824
-0.202777
0.705924
-1.81101
-1.08371
-2.48502
-2.3175
-1.881
-2.35759
-0.312223
-1.18076
1.41299
0.608281
2.40799
2.08688
2.16398
2.49144
0.809106
1.61181
-0.958566
-0.100068
-2.23009
-1.76151
-2.35343
-2.51509
-1.26677
-1.9717
0.47091
-0.410518
1.96622
1.36377
2.45075
2.43595
1.67493
2.25297
0.0353848
0.907748
-1.6269
-0.90855
-2.45774
-2.26178
-2.02809
-2.45639
-0.553826
-1.39172
1.21252
0.387455
2.36563
1.9701
2.31171
2.54716
1.07276
1.82542
-0.722325
0.175108
-2.15668
-1.55992
-2.49492
1.5338
2.4627
-0.183603
2.12221
-1.80325
0.685147
-2.49169
-1.10883
-1.89739
-2.33364
-0.329009
-2.35595
1.40455
-1.16208
2.41165
0.633783
2.17724
2.10504
0.825162
2.49205
-0.947169
1.59437
-2.22801
-0.125986
-2.36094
-1.78156
-1.28034
-2.51813
0.456699
-1.95588
1.95661
-0.384086
2.44909
1.38736
1.6819
2.44553
0.0488469
2.24549
-1.61146
0.889213
-2.44592
-0.927303
-2.02465
-2.27159
-0.56068
-2.45465
1.19764
-1.383
2.34871
0.39514
2.3
1.97071
1.07136
2.5403
-0.713163
1.8162
-2.14192
0.170647
-2.48217
-1.55522
1.55711
-0.161231
2.47408
-1.79344
2.11479
-2.49863
0.662287
-1.91605
-1.13514
-0.348477
-2.34925
1.3948
-2.35243
2.41621
-1.14161
2.19292
0.659605
0.843313
2.12162
-0.93569
2.48995
-2.22823
1.57459
-2.37191
-0.152672
-1.29636
-1.80075
0.442826
-2.51983
1.95024
-1.93973
2.45198
-0.359043
1.69229
1.40851
0.0627288
2.45345
-1.59876
2.23894
-2.43844
0.874675
-2.02492
-0.940277
-0.568983
-2.27637
1.18372
-2.45101
2.33392
-1.37632
2.29001
0.398005
1.07046
1.96612
-0.704361
2.53015
-2.12721
1.80655
-2.46825
0.167856
-1.5484
-0.135733
1.58215
-1.78092
2.48503
-2.50497
2.1055
-1.93663
0.63768
-0.371256
-1.16163
1.38236
-2.36318
2.42031
-2.34645
2.21045
-1.11944
0.864183
0.685224
-0.92264
2.13619
-2.22931
2.48532
-2.38572
1.55327
-1.31532
-0.179185
0.428031
-1.81864
1.94594
-2.52066
2.45902
-1.9246
1.70658
-0.337105
0.0779186
1.42588
-1.58826
2.45918
-2.43563
2.23357
-2.02993
0.864765
-0.579733
-0.947026
1.17055
-2.27603
2.32222
-2.44545
2.28349
-1.37129
1.07164
0.397077
-0.695378
1.95781
-2.1134
2.51797
-2.45501
1.79677
-1.54134
0.165778
-0.107868
-1.76551
1.60761
-2.50979
2.49443
-1.95827
2.09402
-0.397261
0.611972
1.36635
-1.1872
2.42255
-2.37459
2.2288
-2.33778
0.887854
-1.096
-0.906817
0.710129
-2.22955
2.14874
-2.40117
2.47886
-1.33722
1.53164
0.411166
-0.204331
1.94213
-1.83471
2.4691
-2.52108
1.7247
-1.91172
0.0952661
-0.319733
-1.57891
1.43838
-2.43698
2.46226
-2.03997
2.2293
-0.59373
0.859366
1.1576
-0.947934
2.31393
-2.27111
2.28163
-2.43817
1.07633
-1.36727
-0.685416
0.393879
-2.10094
1.94766
-2.44401
2.50513
-1.53588
1.78697
0.163221
-1.74758
-0.0789507
-2.51242
1.63198
-1.97977
2.50139
-0.425613
2.08046
1.34668
0.586
2.4219
-1.21094
2.24676
-2.3831
0.91375
-2.32678
-0.887632
-1.07194
-2.22744
0.733887
-2.41673
2.15956
-1.36142
2.47165
0.391567
1.51115
1.93719
-0.22687
2.48061
-1.84842
1.74594
-2.52139
0.115248
-1.90194
-1.56946
-0.307832
-2.44127
1.44535
-2.05457
2.4623
-0.611332
2.22574
1.14418
0.857687
2.30873
-0.944152
2.28484
-2.26265
1.08551
-2.42948
-0.673687
-1.36345
-2.08987
0.39017
-2.43629
1.9376
-1.53362
2.49281
0.158967
1.77709
-1.72808
-2.51268
-0.050511
-1.99992
1.654
-0.454875
2.50559
1.3241
2.06539
2.41804
0.560637
2.26318
-1.23238
0.940803
-2.38904
-0.865259
-2.31434
-2.22208
-1.04817
-2.43093
0.756229
-1.38682
2.16921
0.369207
2.46489
1.92993
1.4932
2.49187
-0.245706
1.76909
-1.85923
0.137819
-2.52158
-1.55879
-1.89555
-2.44694
-0.301629
-2.0726
1.44674
-0.632327
2.45916
1.1297
2.22224
2.30584
0.858468
2.29282
-0.937356
1.09946
-2.25207
-0.659635
-2.41981
-2.07998
-1.35902
-2.4324
0.387623
-1.53568
1.92934
0.152004
2.48194
1.76691
-2.51096
-1.70832
-2.0179
-0.0238793
-0.483455
1.67312
1.30009
2.50743
2.41147
2.04974
2.27742
0.536531
0.967794
-1.25175
-0.840609
-2.39341
-2.2134
-2.30172
-2.44274
-1.02554
-1.41216
0.777051
0.344693
2.17827
1.91986
2.45953
2.50151
1.47877
1.79276
-0.260054
0.162446
-1.86666
-1.54627
-2.52134
-2.45254
-1.89216
-2.09261
-0.300601
-0.65604
1.4431
1.11383
2.453
2.30433
2.21818
2.30464
0.860207
1.11781
-0.929438
-0.643069
-2.2409
-2.07097
-2.40967
-2.43238
-1.35331
-1.54257
0.387623
0.141649
1.92421
1.7562
2.47314
-2.50819
-2.03361
-1.68952
-0.510101
0.000302738
1.27635
1.68975
2.40338
2.50803
2.28955
2.03448
0.993709
0.513772
-0.815011
-1.26998
-2.20212
-2.39771
-2.45187
-2.29019
-1.43642
-1.00461
0.319032
0.796438
1.90719
2.18717
2.50878
2.45602
1.81574
1.46821
0.188262
-0.269605
-1.5318
-1.87033
-2.45699
-2.52013
-2.11317
-1.8909
-0.681513
-0.303574
1.09656
1.43554
2.30328
2.44436
2.31909
2.21311
1.13969
0.861461
-0.624229
-0.922275
-2.0626
-2.23065
-2.43593
-2.39965
-1.5543
-1.34588
0.127655
0.391164
1.74483
1.92308
2.46675
-2.04772
-2.50558
-0.534385
-1.67241
1.25425
0.0224114
2.39531
1.70519
2.30029
2.50886
1.01808
2.02025
-0.789756
0.491737
-2.18957
-1.28854
-2.45887
-2.40338
-1.45912
-2.28051
0.29323
-0.985441
1.89269
0.814602
2.51371
2.1959
1.83732
2.4541
0.214381
1.46122
-1.51571
-0.274515
-2.4598
-1.87008
-2.13321
-2.51731
-0.707758
-1.89065
1.07815
-0.308978
2.30204
1.42564
2.33498
2.43417
1.16399
2.20687
-0.603645
0.861076
-2.05471
-0.917503
-2.44257
-2.22268
-1.57043
-2.39031
0.110205
-1.33657
1.73285
0.398793
2.46298
1.92643
-2.06148
-0.556871
-2.50408
1.23438
-1.65689
2.38855
0.043814
2.31081
1.72136
1.04118
2.51119
-0.765707
2.00699
-2.17716
0.469162
-2.46486
-1.30901
-1.4805
-2.41133
0.267949
-2.27265
1.87739
-0.967581
2.51694
0.831668
1.85741
2.20398
0.240219
2.45289
-1.49858
1.45696
-2.46103
-0.275309
-2.1522
-1.86608
-0.734064
-2.51252
1.05893
-1.89029
2.30026
-0.315099
2.35136
1.41523
1.18965
2.4237
-0.581915
2.19967
-2.04725
0.858252
-2.45173
-0.91639
-1.59028
-2.21812
0.0897595
-2.38225
1.72043
-1.32541
2.46191
0.410705
1.93444
-0.578961
-2.07632
1.21621
-2.50411
2.38372
-1.64184
2.32231
0.0665638
1.06381
1.74012
-0.743
2.51562
-2.16593
1.99378
-2.47114
0.444439
-1.50136
-1.33247
0.243316
-2.42146
1.86212
-2.26567
2.51941
-0.950244
1.87652
0.847508
0.265624
2.21047
-1.48092
2.45122
-2.46108
1.45442
-2.17015
-0.272825
-0.76013
-1.85893
1.03919
-2.50587
2.2978
-1.88905
2.36764
-0.32029
1.21595
1.40625
-0.559522
2.41444
-2.04016
2.19204
-2.46283
0.852545
-1.6131
-0.919875
0.0669008
-2.21783
1.70787
-2.37598
2.46358
-1.31257
1.94705
0.426875
-0.602502
1.19828
-2.0933
2.38049
-2.5052
2.33553
-1.62544
1.08714
0.0928298
-0.720983
1.76264
-2.15621
2.52173
-2.47878
1.97907
-1.52277
0.416168
0.218871
-1.35904
1.84724
-2.43255
2.52205
-2.25806
1.89548
-0.932757
0.290923
0.861658
-1.46297
2.21431
-2.46044
2.44811
-2.18746
1.45273
-0.786066
-0.268145
1.01894
-1.84984
2.29462
-2.49809
2.38357
-1.88662
1.24251
-0.323147
-0.536658
1.40062
-2.03321
2.40792
-2.4753
2.18463
-1.63818
0.843766
0.0421786
-0.9286
1.69534
-2.22243
2.46787
-2.37185
1.96407
-1.29825
0.447127
1.17855
-0.629185
2.3776
-2.11273
2.35053
-2.50606
1.11222
-1.60561
-0.698459
0.124171
-2.14745
1.78897
-2.48815
2.52808
-1.54568
1.96114
0.193781
0.383755
1.83262
-1.38765
2.52537
-2.44263
1.91515
-2.24832
0.316781
-0.914962
-1.44457
0.873384
-2.45946
2.21483
-2.20466
2.44321
-0.812314
1.45131
0.997953
-0.262605
2.29063
-1.84066
2.39912
-2.49054
1.26935
-1.88308
-0.513157
-0.322495
-2.02601
1.40005
-2.48851
2.40554
-1.66488
2.17801
0.0159374
0.831784
1.68279
-0.942955
2.47447
-2.23223
1.98513
-2.37
0.471226
-1.28252
1.15503
2.37316
-0.659969
2.36655
-2.13401
1.13963
-2.50492
-0.674046
-1.58062
-2.13839
0.161008
-2.49882
1.81789
-1.57058
2.53269
0.167178
1.93875
1.81758
0.347757
2.52936
-1.41628
1.93607
-2.44969
0.34391
-2.23576
-1.42528
-0.897393
-2.45815
0.882037
-2.22214
2.21218
-0.839413
2.43708
0.975808
1.44986
2.28561
-0.257902
2.41426
-1.83372
1.29666
-2.48493
-0.488613
-1.87868
-2.01795
-0.317302
-2.50178
1.40595
-1.6927
2.40828
-0.0117052
2.17248
1.66989
0.8164
2.48273
-0.96315
2.00962
-2.24718
0.498916
-2.37021
-1.26531
2.36528
1.12636
2.38223
-0.694804
1.16931
-2.15573
-0.646582
-2.50006
-2.12743
-1.54973
-2.50963
0.202405
-1.59722
1.84723
0.138431
2.53367
1.80122
1.91175
2.53344
0.309928
1.95828
-1.44257
0.372811
-2.45249
-1.4045
-2.22088
-2.45617
-0.881176
-2.24
0.887536
-0.867753
2.20763
0.951998
2.43094
2.27916
1.44807
2.42887
-0.256052
1.32462
-1.83153
-0.462529
-2.48281
-2.0083
-1.87351
-2.51437
-0.306656
-1.72117
1.4193
-0.0407855
2.41651
1.65602
2.16781
2.49168
0.797324
2.0367
-0.989147
0.529839
-2.2668
-1.24635
-2.37186
2.3525
2.39597
1.09225
1.20054
-0.732597
-0.615501
-2.17612
-2.11306
-2.49032
-2.51899
-1.51346
-1.62477
0.246202
0.107371
1.87453
1.7827
2.52995
2.53667
1.88133
1.98127
0.272878
0.403601
-1.46455
-1.38172
-2.45115
-2.453
-2.20534
-2.25793
-0.867521
-0.897431
0.89068
0.926144
2.20337
2.27085
2.42631
2.44264
1.44541
1.35323
-0.259172
-0.434505
-1.83624
-1.99634
-2.48513
-2.52548
-1.8672
-1.74976
-0.289753
-0.0714043
1.44047
1.64035
2.42988
2.50008
2.1633
2.0652
0.774189
0.563487
-1.02053
-1.22524
-2.29009
-2.37397
2.40643
2.33431
1.23215
1.05358
-0.58097
-0.771481
-2.09431
-2.19355
-2.52539
-2.47557
-1.652
-1.47361
0.0743606
0.289538
1.76141
1.89769
2.53797
2.52177
2.00411
1.84992
0.435904
0.239414
-1.35668
-1.48121
-2.448
-2.44712
-2.27536
-2.19145
-0.928159
-0.857109
0.898162
0.893198
2.26027
2.20197
2.45509
2.42436
1.38222
1.44093
-0.404453
-0.269169
-1.98158
-1.84911
-2.53437
-2.49185
-1.77788
-1.8589
-0.103541
-0.26601
1.62217
1.46902
2.50659
2.44716
2.09375
2.15783
0.599162
0.74675
-1.20164
-1.05644
-2.37524
-2.31553
2.41284
1.26283
2.31126
-0.543823
1.01215
-2.071
-0.809332
-2.52774
-2.20698
-1.67761
-2.45683
0.0401342
-1.43292
1.73719
0.329544
2.53644
1.91563
2.02568
2.51067
0.468945
1.82067
-1.3295
0.211894
-2.4407
-1.4927
-2.29155
-2.44266
-0.959283
-2.18126
0.868305
-0.849707
2.24723
0.897397
2.46573
2.20558
1.41103
2.42539
-0.372668
1.43338
-1.96384
-0.287306
-2.54047
-1.87014
-1.80487
-2.50174
-0.1369
-1.84738
1.60097
-0.235357
2.50998
1.50366
2.1209
2.46649
0.635903
2.15013
-1.17535
0.715135
-2.37431
-1.09545
-2.34123
1.29145
2.41516
-0.505386
2.28483
-2.04374
0.97034
-2.52566
-0.844248
-1.7006
-2.21625
0.00560543
-2.43602
1.71028
-1.39448
2.53152
0.363903
2.04494
1.92839
0.501766
2.49905
-1.30064
1.7966
-2.4309
0.191748
-2.30576
-1.50012
-0.989972
-2.44004
0.837154
-2.17583
2.23184
-0.844082
2.47414
0.905455
1.43894
2.21521
-0.339789
2.42857
-1.94337
1.42136
-2.54348
-0.313838
-1.83005
-1.89794
-0.1709
-2.51273
1.57677
-1.83147
2.50946
-0.198467
2.14529
1.54226
0.672563
2.48559
-1.14655
2.1391
-2.37002
0.679984
-2.36513
-1.13565
1.31727
-0.467169
2.41417
-2.01382
2.25708
-2.51957
0.930552
-1.72048
-0.87489
-0.0283387
-2.22207
1.68129
-2.41565
2.5231
-1.36112
2.06118
0.391225
0.533426
1.93697
-1.27077
2.4895
-2.41869
1.77987
-2.31751
0.179178
-1.0194
-1.50503
0.805518
-2.44074
2.21449
-2.1748
2.48014
-0.838325
1.46529
0.918765
-0.306705
2.23031
-1.92084
2.43209
-2.54347
1.40375
-1.85289
-0.347866
-0.204719
-1.92996
1.55013
-2.52238
2.50482
-1.81052
2.16596
-0.15688
0.707961
1.5821
-1.1158
2.50223
-2.36171
2.1242
-2.38538
0.642534
-1.17488
-0.430565
1.34004
-1.9829
2.41112
-2.51052
2.2303
-1.73732
0.894827
-0.0610441
-0.900654
1.651
-2.2257
2.5116
-2.39818
2.07415
-1.33495
0.563235
0.411122
-1.24059
1.94276
-2.40442
2.48393
-2.32663
1.77128
-1.0469
0.173208
0.774205
-1.509
2.1958
-2.44503
2.48385
-2.17653
1.48957
-0.830462
-0.274337
0.937518
-1.89713
2.2489
-2.54089
2.43368
-1.8731
1.38012
-0.237443
-0.38736
1.52204
-1.96303
2.49656
-2.52857
2.18254
-1.78481
0.741042
-0.112943
-1.0841
1.62034
-2.34944
2.5147
-2.40077
2.10563
-1.21111
0.6045
-0.396708
-1.95273
1.35996
-2.49993
2.40749
-1.75166
2.20653
-0.0921293
0.864621
1.62028
-0.921572
2.49774
-2.22861
2.08411
-2.38554
0.590914
-1.31708