# vtk DataFile Version 3.1
vtk output
ASCII
DATASET POLYDATA
POINTS 10242 FLOAT
-7.61101e-08 -2.82396e-18            1
0.723607 0.525731 0.447213
-0.276394  0.850651  0.447213
  -0.894427 5.46272e-18    0.447213
-0.276394 -0.850651  0.447213
 0.723607 -0.525731  0.447213
    0.894427 -4.35705e-18    -0.447213
 0.276394  0.850651 -0.447213
-0.723607  0.525731 -0.447213
-0.723607 -0.525731 -0.447213
 0.276394 -0.850651 -0.447213
7.61101e-08 3.92964e-18          -1
0.425325 0.309017 0.850651
 0.425325 -0.309017  0.850651
    0.850651 -8.96408e-09     0.525731
0.262865 0.809017 0.525731
-0.16246      0.5 0.850651
-0.688191       0.5  0.525731
  -0.525731 3.01954e-18    0.850651
-0.688191      -0.5  0.525731
-0.16246     -0.5 0.850651
 0.262865 -0.809017  0.525731
    0.951057    -0.309017 -7.95955e-19
   0.951057    0.309017 1.20782e-18
 0.688191       0.5 -0.525731
   0.587785    0.809017 7.95955e-19
1.99291e-17           1           0
-0.262865  0.809017 -0.525731
  -0.587785    0.809017 7.95955e-19
-0.951057  0.309017         0
  -0.850651 8.96408e-09   -0.525731
  -0.951057   -0.309017 7.95955e-19
-0.587785 -0.809017         0
-0.262865 -0.809017 -0.525731
-2.23446e-17           -1  7.95955e-19
 0.587785 -0.809017         0
 0.688191      -0.5 -0.525731
    0.525731 -5.22261e-18    -0.850651
  0.16246       0.5 -0.850651
  0.16246      -0.5 -0.850651
-0.425325  0.309017 -0.850651
-0.425325 -0.309017 -0.850651
0.202786 0.147333 0.968076
 0.202786 -0.147333  0.968076
    0.455363 -3.02204e-18     0.890306
 0.668267 -0.154685  0.727662
 0.609818 -0.443059  0.657131
 0.812604 -0.295727  0.502216
0.668267 0.154685 0.727662
0.812604 0.295727 0.502216
0.609818 0.443059 0.657131
 0.53236 0.681448 0.502216
0.353619  0.58776 0.727662
0.0593922  0.683361  0.727661
-0.0301442   0.864217   0.502216
-0.232931  0.716884  0.657131
0.140715 0.433076 0.890306
-0.0774574   0.238389   0.968076
-0.483587  0.716884  0.502216
-0.449719  0.517941  0.727661
-0.631561  0.267655  0.727662
-0.831234  0.238389  0.502216
  -0.753776 4.80946e-18    0.657131
-0.368396  0.267656  0.890306
   -0.250657 -9.61891e-19     0.968076
-0.831234 -0.238389  0.502216
-0.631561 -0.267655  0.727662
-0.449719 -0.517941  0.727661
-0.483587 -0.716884  0.502216
-0.232931 -0.716884  0.657131
-0.368396 -0.267656  0.890306
-0.0774574  -0.238389   0.968076
-0.0301442  -0.864217   0.502216
0.0593922 -0.683361  0.727661
0.353619 -0.58776 0.727662
  0.53236 -0.681448  0.502216
 0.140715 -0.433076  0.890306
 0.860475 -0.443058   0.25156
 0.949698 -0.154685  0.272297
    0.999958 -3.02203e-18   0.00913221
 0.956562 -0.147333  -0.25156
0.956562 0.147333 -0.25156
0.949698 0.154685 0.272297
0.860475 0.443058  0.25156
 0.831234  0.238389 -0.502216
 0.859244  0.433076 -0.272297
 0.677401  0.683362 -0.272297
 0.483587  0.716884 -0.502216
0.435715 0.864216 -0.25156
   0.808983    0.587761 -0.00913221
0.687276 0.681447  0.25156
0.155473 0.955273 -0.25156
  0.309003   0.951017 0.00913221
0.146359 0.951017 0.272297
-0.155473  0.955273   0.25156
0.440587 0.855417 0.272297
0.0301442  0.864217 -0.502216
-0.146359  0.951017 -0.272297
-0.440587  0.855417 -0.272297
 -0.53236  0.681448 -0.502216
-0.687276  0.681447  -0.25156
  -0.309003    0.951017 -0.00913221
-0.435715  0.864216   0.25156
-0.860475  0.443058  -0.25156
 -0.808983   0.587761 0.00913221
-0.859244  0.433076  0.272297
-0.956562  0.147333   0.25156
-0.677401  0.683362  0.272297
-0.812604  0.295727 -0.502216
-0.949698  0.154685 -0.272297
-0.949698 -0.154685 -0.272297
-0.812604 -0.295727 -0.502216
-0.860475 -0.443058  -0.25156
  -0.999958 3.32424e-18 -0.00913221
-0.956562 -0.147333   0.25156
-0.687276 -0.681447  -0.25156
 -0.808983  -0.587761 0.00913221
-0.677401 -0.683362  0.272297
-0.435715 -0.864216   0.25156
-0.859244 -0.433076  0.272297
 -0.53236 -0.681448 -0.502216
-0.440587 -0.855417 -0.272297
-0.146359 -0.951017 -0.272297
0.0301442 -0.864217 -0.502216
 0.155473 -0.955273  -0.25156
  -0.309003   -0.951017 -0.00913221
-0.155473 -0.955273   0.25156
 0.435715 -0.864216  -0.25156
  0.309003  -0.951017 0.00913221
 0.440587 -0.855417  0.272297
 0.687276 -0.681447   0.25156
 0.146359 -0.951017  0.272297
 0.483587 -0.716884 -0.502216
 0.677401 -0.683362 -0.272297
 0.859244 -0.433076 -0.272297
 0.831234 -0.238389 -0.502216
   0.808983   -0.587761 -0.00913221
    0.250657 -9.61891e-19    -0.968076
0.0774574  0.238389 -0.968076
 0.368396  0.267656 -0.890306
 0.449719  0.517941 -0.727661
 0.232931  0.716884 -0.657131
 0.631561  0.267655 -0.727662
    0.753776 -4.80946e-18    -0.657131
 0.232931 -0.716884 -0.657131
 0.449719 -0.517941 -0.727661
 0.368396 -0.267656 -0.890306
0.0774574 -0.238389 -0.968076
 0.631561 -0.267655 -0.727662
-0.202786  0.147333 -0.968076
-0.140715  0.433076 -0.890306
-0.353619   0.58776 -0.727662
-0.609818  0.443059 -0.657131
-0.0593922   0.683361  -0.727661
-0.202786 -0.147333 -0.968076
  -0.455363 3.32424e-18   -0.890306
-0.668267 -0.154685 -0.727662
-0.609818 -0.443059 -0.657131
-0.668267  0.154685 -0.727662
-0.0593922  -0.683361  -0.727661
-0.353619  -0.58776 -0.727662
-0.140715 -0.433076 -0.890306
0.0927642 0.0673972  0.993404
 0.0927642 -0.0673972   0.993404
    0.213262 -1.15757e-18     0.976995
  0.332317 -0.0772106   0.940002
 0.316216 -0.229745  0.920448
 0.447504 -0.156604  0.880463
 0.332317 0.0772106  0.940002
0.447504 0.156604 0.880463
0.316216 0.229745 0.920448
0.552956 -0.23322 0.799905
 0.524626 -0.381163  0.761237
 0.644597 -0.304096  0.701442
 0.718218 -0.366871  0.591243
 0.677349 -0.492123  0.546822
 0.770113 -0.424725  0.475956
 0.750869 -0.226885  0.620257
 0.840843 -0.151418  0.519669
  0.768504 -0.0766153   0.635241
 0.768504 0.0766153  0.635241
0.840843 0.151418 0.519669
0.750869 0.226885 0.620257
0.718218 0.366871 0.591243
0.770113 0.424725 0.475956
0.677349 0.492123 0.546822
0.644597 0.304096 0.701442
0.524626 0.381163 0.761237
0.552956  0.23322 0.799905
  0.568536 -0.0785208   0.818903
    0.676611 -3.14604e-18     0.736341
 0.568536 0.0785208  0.818903
0.641916 0.601174 0.475955
0.570857 0.569697 0.591243
0.447812 0.644007 0.620257
0.403843 0.752898 0.519669
0.310346 0.707216 0.635241
0.488404 0.519078 0.701441
0.392679 0.453824 0.799904
0.164614 0.754567 0.635241
0.115827 0.846481 0.519668
0.0162503   0.78423  0.620257
-0.126975  0.796435  0.591244
-0.165959  0.863669  0.475955
-0.258724  0.796271  0.546822
-0.0900209   0.707019   0.701441
-0.200389  0.616735  0.761237
-0.0509326   0.597963   0.799904
-0.0106535   0.473995   0.880463
-0.120784  0.371735  0.920448
0.0292599  0.339911  0.940002
0.0659015  0.202824  0.976995
-0.035433  0.109051  0.993404
0.176123 0.292193 0.940002
0.287227 0.377208 0.880463
0.209084 0.643495 0.736341
0.101009 0.564974 0.818903
0.250364 0.516446 0.818903
-0.373387  0.796272  0.475956
-0.365409  0.718963  0.591243
-0.474106  0.624904  0.620257
-0.591255  0.616735  0.519668
-0.5767  0.5137 0.63524
-0.342747  0.624904  0.701441
-0.310268    0.5137  0.799904
-0.666767  0.389732  0.635241
-0.769258  0.371735  0.519668
-0.740826  0.257795  0.620257
-0.796692  0.125352  0.591244
-0.872682  0.109051  0.475955
  -0.837249 8.51128e-18    0.546821
-0.700234  0.132866  0.701441
  -0.648474 3.86034e-18    0.761237
-0.584435   0.13634  0.799904
-0.454088   0.13634  0.880463
  -0.390865 1.93018e-18    0.920448
-0.314234  0.132866  0.940002
-0.172533  0.125352  0.976995
   -0.114663 -2.68375e-18     0.993404
-0.223468  0.257796  0.940002
-0.269989  0.389732  0.880463
-0.547389  0.397703  0.736341
-0.50611 0.270652 0.818902
-0.413801  0.397703  0.818902
-0.872682 -0.109051  0.475955
-0.796692 -0.125352  0.591244
-0.740826 -0.257795  0.620257
-0.769258 -0.371735  0.519668
-0.666767 -0.389732  0.635241
-0.700234 -0.132866  0.701441
-0.584435  -0.13634  0.799904
-0.5767 -0.5137 0.63524
-0.591255 -0.616735  0.519668
-0.474106 -0.624904  0.620257
-0.365409 -0.718963  0.591243
-0.373387 -0.796272  0.475956
-0.258724 -0.796271  0.546822
-0.342747 -0.624904  0.701441
-0.200389 -0.616735  0.761237
-0.310268   -0.5137  0.799904
-0.269989 -0.389732  0.880463
-0.120784 -0.371735  0.920448
-0.223468 -0.257796  0.940002
-0.172533 -0.125352  0.976995
-0.035433 -0.109051  0.993404
-0.314234 -0.132866  0.940002
-0.454088  -0.13634  0.880463
-0.547389 -0.397703  0.736341
-0.413801 -0.397703  0.818902
 -0.50611 -0.270652  0.818902
-0.165959 -0.863669  0.475955
-0.126975 -0.796435  0.591244
0.0162503  -0.78423  0.620257
 0.115827 -0.846481  0.519668
 0.164614 -0.754567  0.635241
-0.0900209  -0.707019   0.701441
-0.0509326  -0.597963   0.799904
 0.310346 -0.707216  0.635241
 0.403843 -0.752898  0.519669
 0.447812 -0.644007  0.620257
 0.570857 -0.569697  0.591243
 0.641916 -0.601174  0.475955
 0.488404 -0.519078  0.701441
 0.392679 -0.453824  0.799904
 0.287227 -0.377208  0.880463
 0.176123 -0.292193  0.940002
0.0659015 -0.202824  0.976995
0.0292599 -0.339911  0.940002
-0.0106535  -0.473995   0.880463
 0.209084 -0.643495  0.736341
 0.250364 -0.516446  0.818903
 0.101009 -0.564974  0.818903
 0.792012 -0.492122  0.361293
 0.850021 -0.366871  0.377981
  0.91566 -0.304096  0.262853
 0.915491 -0.381163  0.128804
0.962746 -0.23322 0.136851
 0.890574 -0.226885   0.39421
  0.911862 -0.0766153   0.403284
   0.98764  -0.156604 0.00650545
  0.96469 -0.229745 -0.128804
   0.98938 -0.0772107  -0.123148
    0.969225 -1.15756e-18    -0.246179
  0.930013 -0.0673972  -0.361293
 0.930013 0.0673972 -0.361293
  0.98938 0.0772107 -0.123148
  0.96469  0.229745 -0.128804
   0.98764   0.156604 0.00650545
0.962746  0.23322 0.136851
0.915491 0.381163 0.128804
 0.91566 0.304096 0.262853
0.850021 0.366871 0.377981
0.792012 0.492122 0.361293
0.890574 0.226885  0.39421
 0.911862 0.0766153  0.403284
  0.986706 -0.0785208    0.14229
 0.986706 0.0785208   0.14229
    0.961193 -3.14604e-18     0.275878
 0.872682  0.109051 -0.475955
 0.903323  0.202824 -0.377981
0.853849 0.339911 -0.39421
 0.769258  0.371735 -0.519668
 0.782745  0.473995 -0.403284
 0.919528  0.292193 -0.262853
 0.915961  0.377209 -0.136851
[...]
POINT_DATA 10242
SCALARS Field double
LOOKUP_TABLE default
-1.76584
1.67428
-0.278512
0.41235
-1.74941
1.49458
-1.83178
1.47398
0.446289
-1.06802
0.409986
0.998841
0.440848
1.26837
-0.647896
-0.0871085
-0.330041
0.905783
1.06828
1.50406
-1.30531
0.858822
-1.31375
0.749069
-1.84846
0.59563
-1.51838
1.79907
-1.62931
-1.86855
1.78678
-1.79044
-0.899033
1.51311
-0.138961
0.701698
-1.40197
-0.904847
1.53128
1.6807
-1.70192
1.11953
1.66292
-1.27793
-1.12468
-1.43135
1.76017
-0.926361
1.4226
0.949431
-1.90548
1.62762
0.198694
1.85776
-1.83874
0.678075
-1.8583
0.508158
0.148311
1.13118
-1.82827
-1.38066
1.61796
-1.70845
1.54441
-1.06894
0.38528
-1.35582
0.38406
1.86083
-1.24841
1.69162
1.18962
-1.24216
-1.17626
-1.81799
1.31043
-1.47489
1.29416
-0.665068
-1.10186
1.38376
1.16771
-2.59461
-1.39802
0.354621
1.19486
-1.35467
-0.772763
0.831871
-1.18295
-0.654251
1.76357
0.332996
1.33362
-1.80832
-1.74497
1.07688
-0.488102
-0.979055
-0.461105
1.29236
-1.62678
0.637384
1.83516
-0.6412
0.491884
1.23992
-1.85
0.0546577
-1.05883
-0.893377
1.79343
1.95353
-0.511988
0.400191
0.311253
-1.8571
1.73754
1.02754
0.491499
-1.8053
0.0637139
-1.38925
1.80827
1.81033
-1.45526
-1.00631
-1.82022
1.86716
-0.583007
-0.462455
-0.0032772
-0.950287
1.83477
1.8628
1.53289
-0.698316
-1.46046
-0.373156
1.4021
0.29128
1.39884
1.83584
1.33264
-0.174762
-0.405665
1.64559
-1.264
1.43987
-0.788807
1.38855
0.857046
-1.51877
-1.72979
0.984409
-1.4892
0.917795
0.64753
-1.73796
0.192456
-1.60715
-0.0686664
-1.78844
1.16268
1.81224
-0.0449465
1.34397
0.449578
-1.63104
-1.66486
0.1016
1.84819
-0.922495
-1.30766
1.56141
-1.11257
-0.86532
1.82708
1.78913
0.13287
-1.43048
-1.73623
-0.882078
1.87021
0.927945
-0.714071
1.11534
1.73008
-1.82172
1.23083
-0.231171
1.86443
-0.61147
-1.50933
1.15062
-1.81648
-1.19642
1.89536
-1.32334
-1.37255
-0.0682882
1.1146
-1.31143
1.68923
1.49156
-1.79148
-1.18548
-1.38485
1.81944
1.12938
1.70424
-1.45592
-0.362597
-1.20942
1.34351
0.00661908
1.2691
1.77622
0.134221
-1.76833
-1.81573
1.19195
-1.83096
0.644543
0.905249
1.35758
-1.79232
-0.294332
-1.34021
1.67702
0.641004
1.0431
0.941237
0.538983
1.66548
-0.569352
-1.72311
-0.397898
-0.961977
1.61332
0.743353
-1.84019
1.05185
1.70875
-0.14863
-1.31739
-1.03819
1.74271
-1.6021
-1.78033
-0.64223
1.44712
-2.30646
-1.27754
-1.3414
-0.183937
0.3235
1.23691
1.73219
-0.67219
-0.980768
-1.15112
1.77392
0.23227
-0.178609
-1.62464
1.2038
1.74001
0.495098
0.687732
1.62697
-1.45499
-1.78481
-0.064083
-0.432206
-1.8919
1.53278
0.812352
-1.74633
0.337188
0.897805
-0.454747
-1.41421
-1.84328
-1.30503
-0.313531
1.79164
0.0193552
1.89888
0.0441982
1.35077
0.104932
-1.63518
0.0729645
-1.79913
1.46481
1.57485
-0.245047
1.78303
-0.984475
1.80077
1.53931
-1.57577
0.21995
-0.0026013
-1.74155
-1.36386
1.68755
0.714965
0.26506
0.311339
-0.839498
1.64506
-1.31342
-0.144239
-1.31058
-1.77475
-1.68689
1.31303
1.63877
-1.70824
1.24048
0.406241
-1.74204
0.69089
-1.70636
0.909022
1.71601
1.06405
0.889966
0.770881
-1.69547
-1.82375
0.237848
1.42321
1.73008
-1.57172
-0.5162
0.793027
1.23134
0.843471
-1.82182
-1.71829
-1.1464
-1.82149
1.02305
1.78233
0.448459
-0.8189
1.56338
-1.631
0.212087
1.73794
-0.478303
-1.75727
1.1207
1.83106
1.48639
0.370058
-0.411914
-1.81652
0.918789
-1.59176
-1.16327
-0.181803
0.170383
-1.66785
0.542908
-0.244906
1.66705
1.51399
-0.16258
-1.21109
-1.03617
-0.931575
1.79673
1.75885
0.0795415
1.86035
-1.08211
1.71927
1.19301
-1.86227
0.230537
-0.922284
-0.999818
1.83767
-1.31249
-1.6251
0.337462
-1.84638
-1.79631
-1.72397
1.50248
1.09372
0.0149016
-1.2843
-0.531872
-1.43316
1.15385
1.80148
-0.470683
-1.80125
1.77013
0.237629
-1.84194
0.609359
1.60237
1.10411
0.338957
-1.00532
-1.62808
1.72017
-1.07648
-0.771742
1.35249
-0.261071
1.62379
1.76948
-1.46796
-0.762353
0.975957
-1.82809
-0.455308
-1.47016
-1.26506
1.90526
0.780019
1.51764
0.327902
-1.52504
-0.959532
-1.78132
0.153652
1.41468
-0.0330258
-1.75231
0.849059
-1.25507
-1.04715
-1.65091
-0.534252
1.71414
1.80226
-1.3999
-1.62461
-1.35339
-0.929335
-0.285648
1.60728
-0.685532
1.49274
-0.23281
-1.72954
-0.664276
1.70377
1.80508
0.366412
1.03791
-0.978909
1.69274
1.36237
1.75092
-0.778615
-1.73538
-0.725793
1.12245
-1.37882
1.73661
-0.1536
-1.59301
0.179977
1.71181
1.50354
-1.41691
1.06402
-1.82239
-1.33537
-1.06789
-0.616246
-0.31288
-1.72492
1.86154
-0.887121
1.31752
1.41636
-0.0927959
-1.57526
-0.772546
-1.69776
1.63923
0.896427
0.473215
1.49328
1.53358
-1.77019
-1.12839
-1.50725
1.59808
-0.117701
1.57053
-1.7487
0.492747
1.3588
1.71327
1.83212
-0.164811
-1.15127
-1.29774
-1.77011
-0.314209
1.788
1.71311
-1.2828
1.84955
-0.265039
-0.587605
-0.552906
1.82862
-0.756955
-0.358251
-1.01284
-0.830719
-0.170284
0.904067
1.76689
0.672695
-1.77682
-0.82603
1.83574
-1.32247
-1.51469
-1.15317
-0.928348
1.72707
1.07585
0.306527
1.91244
-0.577383
1.85754
-1.66957
0.25596
-1.64924
-1.48182
1.51782
-0.237897
1.50155
-0.0171402
-0.433627
-0.240094
-0.232171
1.89178
-0.885856
-1.12176
-1.61784
1.77648
-1.67341
0.908001
-1.73693
-1.63621
1.58724
-1.54088
-0.0237192
1.6987
-1.44581
1.6973
-1.39393
-1.46444
1.41413
-0.574594
1.77191
-1.21157
-0.857017
1.78423
-0.649157
-1.34836
-0.294041
1.79998
1.76508
1.77267
-0.022841
1.39411
-0.155548
1.71543
-1.78603
-0.550207
-0.0441362
-1.32661
-1.83829
-0.468717
1.80606
-1.33418
1.77647
-0.468058
-1.42197
1.31329
1.62584
1.19235
1.35828
0.0976766
-1.83245
1.38862
-0.529651
-1.08483
0.47346
1.81933
-1.78578
-1.16518
-1.35246
-1.83109
-0.0290596
1.45045
1.19264
1.71951
0.352718
-1.68791
-1.23371
0.844072
1.87433
0.739434
0.376283
-1.47941
1.81062
1.07991
-1.84139
0.992475
0.434318
0.00336314
0.684838
-1.77021
1.02611
-1.73452
0.340134
1.3555
-1.82037
0.571537
0.0156711
-0.154201
1.47989
1.58179
-1.57378
-1.51165
-1.80786
-1.14206
-0.659492
-1.62482
-0.056575
0.576553
1.80396
1.52272
0.611419
-0.735757
1.22906
1.66372
0.668019
1.83516
1.72582
0.124663
0.888989
-0.377716
-1.78924
-1.44019
-1.8514
-0.763292
-1.47438
-0.782073
0.03921
1.17155
1.60555
1.47963
1.79173
1.73527
1.6681
1.43328
1.03914
1.8542
0.6656
-0.485293
-1.82251
-1.64697
0.388553
1.64687
0.242703
0.246824
1.50878
0.438609
-1.2836
-1.81996
-1.81623
-0.79374
0.860127
0.944198
1.83006
1.06586
1.16694
0.804088
0.447571
-1.1039
-1.19357
-1.82824
-1.85305
-0.384056
-1.73065
-1.5577
-1.67359
-0.227202
-0.933803
-1.14931
-0.455
0.798513
0.0970371
1.6258
1.00449
1.63466
1.85001
1.96211
0.0212911
-0.936702
-1.62499
-1.57245
-0.898932
0.229606
1.7715
1.84502
1.23842
1.25007
1.7852
0.424382
-1.5611
-1.81607
-1.42579
0.75584
-1.25571
-1.71893
-0.639173
-1.63124
-0.101759
1.62098
1.42694
1.69694
1.79357
1.56763
0.978457
0.131326
-1.04037
-1.75587
-0.758622
0.586259
-1.36881
1.85742
1.67388
1.20883
1.75161
0.70221
0.120229
-1.58956
0.21519
1.46802
-0.28688
-0.83782
0.611844
-1.37505
-1.73662
-1.15236
-1.56913
-0.503242
1.42416
0.810076
1.70411
1.48077
-0.0207213
-1.72259
-1.15136
-1.83245
-1.86932
-1.75729
-0.797472
-1.8815
-1.72664
-1.73105
-1.33506
-0.745331
1.26944
0.692993
-0.789843
-1.68842
-0.188806
0.377188
-0.792263
0.79355
1.48484
1.70552
1.82759
1.09176
-0.825882
-0.355455
-1.5797
-1.57138
-1.78779
0.221458
0.81717
1.77641
0.581782
1.83863
1.66309
-0.888646
1.09778
0.528363
1.60262
1.52094
1.81573
-0.147623
-0.846683
-1.73529
1.22276
-0.637582
0.212966
-0.784769
-1.79138
0.973737
1.85714
0.843045
-1.12528
-1.84119
-0.448233
-1.8179
-1.69276
-1.4502
1.80997
1.46778
0.439817
-1.69124
0.0256862
1.70359
-0.61487
0.82716
1.33202
-0.635531
-1.83824
-1.67832
-1.3012
-0.71992
0.0221311
0.812315
1.71472
1.75934
1.68371
0.668922
1.83329
0.895371
1.76901
1.50233
1.53111
0.0722917
1.57003
0.340168
-1.44884
-1.3879
-1.78149
-0.602081
-0.765468
1.09514
-0.530433
1.2048
-0.562122
-0.704597
0.951738
-0.950675
-1.2637
0.205981
-1.85337
-1.14913
-1.43678
-1.7879
-1.34411
1.85508
1.8293
1.11489
-0.471331
-0.0692317
-1.65667
-0.770235
-1.82966
-0.963217
-1.73036
-1.81064
-0.863027
0.296734
-0.416904
1.14492
0.969443
1.81308
1.44358
1.6988
1.29801
1.79319
1.81775
0.956578
1.82126
0.880274
-0.865476
-0.983255
-1.50575
0.234718
-1.22089
1.79427
1.34287
1.67365
1.34448
1.81918
0.707388
0.0620088
-1.63604
-1.34763
-0.198282
0.733906
-1.12546
-1.72407
-1.36351
-1.81893
-1.35657
-0.278995
1.02028
1.80237
1.50592
0.433235
-0.12054
-1.43963
-1.23656
-1.75652
-1.81876
1.84056
0.771004
-1.04967
1.82437
1.82959
-1.83188
-0.89795
0.829716
-1.07449
-1.81883
-0.563875
1.33356
1.74266
1.83875
1.84773
-1.02169
-0.865025
0.840519
1.47604
1.81404
0.964017
0.591415
-0.779403
1.49067
0.776218
-1.75124
-1.80676
-0.990577
0.732826
0.458012
1.72507
0.462769
1.42638
-0.376539
-1.41155
-1.10001
-1.76685
-0.791416
-0.783554
-0.530361
0.0222838
-1.61298
-1.71915
-1.08725
1.30816
1.71528
0.213758
-0.618308
1.01686
-1.03234
-2.02626
-2.57949
-2.05149
-1.29714
-0.489812
-1.49642
-1.49865
-1.79937
-1.2229
-0.700288
1.0253
0.399324
1.39356
1.95371
1.91388
1.68687
-0.0504563
0.604027
1.31973
0.683373
-0.904091
-1.89067
-0.637823
-1.85275
-0.886025
-1.75437
-1.73759
-1.17229
0.567018
0.441775
-1.7422
-1.79109
-0.793455
1.6903
1.52429
1.5044
0.0985466
-1.17035
1.28592
1.81822
1.56096
0.817861
0.0302524
-0.52042
-1.15059
-1.72991
-1.70514
0.590871
1.02019
-0.857499
1.15948
-0.169036
-0.413703
1.56664
1.72278
0.727218
1.67977
0.960153
1.00635
0.65536
-0.233009
-1.3485
-1.75695
-1.06067
0.6887
1.44596
1.53447
1.75392
-0.904931
0.280264
1.56382
1.74632
1.41175
1.35164
1.83776
-0.191587
-0.595805
-1.66385
-1.38006
-1.04971
0.431164
-1.67114
-0.64127
-1.87629
-1.87223
-1.71383
-1.53248
-0.856566
-1.7182
0.428657
1.48693
0.259196
-1.07815
0.836558
1.78431
1.82729
1.19484
-0.693275
-1.07342
-1.82576
-0.250164
-1.54311
0.2714
-1.11504
-0.798964
0.630072
1.75055
1.78605
1.6986
1.5979
1.39585
1.05129
0.545931
-0.0868054
-0.948953
-1.87511
-1.83559
-1.39514
-0.0193656
-1.65053
-0.751124
-1.32213
-1.6891
-1.81297
-1.6842
-0.00235463
-0.686749
-1.7248
-1.50648
-1.28106
0.0566936
1.39378
1.76138
0.897498
-0.577138
-1.64842
1.32275
1.69026
1.66345
-0.802806
1.09727
0.623963
1.63015
1.79247
0.841021
1.31415
0.789904
-0.631463
-1.70176
-1.74231
-1.29029
0.738502
1.85498
0.71809
-1.293
-0.675271
0.0824388
1.37174
1.74278
1.76417
0.955249
-0.681241
-1.50333
-0.794366
-1.82179
-1.77413
-1.24902
-1.62672
-1.80407
-1.0753
-0.406944
-1.58438
0.172866
0.921801
1.80703
1.68479
1.78022
0.453827
1.50219
1.19385
-0.61349
1.77953
0.527532
-0.895963
1.03712
-0.0792707
0.563226
-1.09581
0.761311
0.804037
-0.989308
0.69442
1.79564
1.11675
1.09615
0.408441
-1.31459
-0.0693422
-0.691515
-1.77556
-1.34054
1.03589
1.60788
1.78454
0.674295
-0.357936
-1.18762
-1.67424
-1.16047
-0.214191
-1.58327
-1.72819
-0.473009
1.75693
1.60971
1.32681
1.50856
1.76578
1.52643
-0.137576
-1.37008
-1.70607
1.41113
1.71104
1.61449
-1.79893
-2.2721
-0.57574
0.951978
0.757065
1.327
1.67253
1.44937
0.278761
-1.25132
-1.77016
0.408106
0.0532627
1.61892
-0.267896
1.41228
1.39842
1.71154
1.28982
-0.55737
1.59274
0.533188
-1.76408
-1.20077
0.366476
0.438653
0.0449341
-0.758811
-1.59303
-1.70262
-1.39752
-0.646104
-1.68316
-1.60123
-1.36379
-1.81468
-0.84277
-0.374087
-1.49991
-0.0118308
0.869653
1.75671
0.141257
-1.48632
0.0164618
-0.329165
-1.87691
-0.711628
1.51753
1.75405
1.73087
0.26005
-1.38455
-1.36233
-1.81832
-0.642604
-1.05918
0.817604
1.5716
1.71092
1.7311
-0.982932
-1.71423
-1.09087
-0.971142
-1.74964
-0.481357
0.668392
1.81151
1.75685
0.412535
-0.253248
1.35491
1.74003
1.73761
1.29959
1.60602
0.167376
1.10652
0.0939485
-1.56741
-1.13184
-1.79535
-0.851935
-1.26532
-0.745695
-0.571147
1.12412
1.35664
1.6588
1.83692
0.261771
1.6289
1.6231
1.66498
0.125985
0.365717
1.77068
1.91209
0.485131
-1.1194
-1.44062
-1.55139
-0.697852
0.820701
-1.96729
-2.29877
-1.3943
0.385241
1.6602
1.17049
1.69908
1.10589
1.86893
0.138013
-0.612601
1.41225
0.91613
1.74776
1.07181
1.75894
0.583317
-0.614342
-1.8308
-1.44858
-1.38207
-1.1117
-0.7684
-0.497415
-0.419925
-1.69383
-1.24866
-0.792734
-1.78028
-1.02824
0.417984
-0.177232
-1.59521
-1.76741
-1.52532
-0.866613
-1.51378
0.161675
1.21633
1.71312
1.32949
0.320141
-0.611023
1.79473
1.2973
1.67281
1.14019
1.82693
0.439733
-0.258212
1.09838
-1.40968
-1.80795
-0.907983
0.0627303
-1.61964
-1.82663
-1.5723
-0.887677
1.10716
1.74598
1.8247
0.12833
1.17253
-0.853623
0.556774
-0.470881
-1.25816
-1.80968
-1.47328
-1.78428
-1.43904
-0.854679
-0.136125
0.598942
1.24166
1.61864
1.42827
1.79408
1.37237
0.378094
1.80018
1.69947
1.89269
1.79582
1.5183
0.979506
-1.06742
-0.455468
1.25075
1.09605
0.986798
-0.46028
-1.58767
-1.53048
-0.288648
1.18418
1.75934
-0.675549
-1.02877
-1.89771
-0.148684
-1.69082
-1.52266
-1.45488
-1.86147
-1.55372
-0.667097
0.262302
-0.511942
0.851102
1.78099
0.199578
-1.57739
-1.40558
0.481802
1.82881
1.63289
1.08707
-1.84005
-1.73891
-0.953452
1.0402
-0.541708
-1.42607
-0.952242
-1.80608
-1.71683
-1.28599
-1.28146
-1.5502
0.0895251
1.47422
1.30943
1.76746
1.66448
1.45221
1.80188
1.80645
0.524976
1.5892
1.0896
-0.895058
1.80723
0.515553
-0.835477
1.05238
-0.211308
0.624349
0.7163
-1.07493
-1.83913
-1.83294
-1.00646
-1.84161
-0.759152
-1.81119
0.67437
0.707878
1.76101
1.5011
1.48903
0.291177
1.43445
-0.176183
1.31514
1.12475
-0.766251
0.860109
0.519758
-1.38052
0.110936
1.82775
1.38769
1.14173
0.758754
1.83916
0.922978
-0.337154
-1.79967
-0.789082
-1.20627
-1.80299
-1.54323
0.759025
1.7608
1.85956
-1.76324
-1.34973
-1.8434
-1.76057
-0.620682
-1.41851
0.312712
1.75077
1.29182
-0.653511
-1.84115
0.639253
-0.0537983
1.65952
-0.349434
0.979785
1.46943
0.407812
-1.41132
-1.71055
0.0676645
-0.383292
-0.115597
1.6207
1.51335
1.79551
0.825789
-0.672401
-1.70513
-1.74279
-1.3839
-0.894037
-1.50532
-1.16261
-1.79332
-0.891229
-1.23434
-1.81018
-1.17006
-0.723538
-1.48187
-1.67124
1.1441
1.84167
1.85392
0.572368
-0.878366
-1.33216
1.6802
1.37018
1.73071
0.624607
1.03766
-0.938898
-1.8299
-1.71633
-1.85685
-1.79983
-0.26803
0.18251
-1.54888
-1.71693
-0.782325
-0.170849
1.56964
1.76724
1.61247
0.405072
0.886074
-1.06512
0.0235027
-1.25396
-1.52416
-1.64241
-0.891703
-1.72768
-0.963695
0.400868
1.58748
1.73369
0.61648
1.5482
-0.195131
1.26492
1.30855
0.884062
1.85778
-1.0015
-1.84571
-1.24238
0.338076
-1.0097
0.924622
-0.695299
1.63035
1.72675
0.708743
0.388271
-0.003393
-0.432074
-0.848815
-1.21613
-1.51069
0.745647
1.80015
1.85705
1.74415
1.39401
1.83015
-1.6471
-1.81864
-1.84983
-0.529886
0.977505
-1.74759
-1.53903
-1.27389
-1.7783
-0.316319
1.51648
1.64182
-0.0947848
1.38363
1.82829
-1.37302
0.102591
0.542638
-0.259895
-1.60452
-1.8193
-1.70219
-1.45295
-1.57805
-0.0229979
-0.55262
-1.34503
0.63303
1.62405
0.982426
1.92276
1.8741
0.950636
1.68833
1.14878
-0.821882
0.42786
-0.28515
-1.80885
1.5219
1.60151
0.334624
1.73936
1.09536
1.32588
1.7594
0.107949
-1.06735
-0.0732579
-1.65221
-1.75441
-1.60428
-2.02311
-1.6709
-1.33061
-1.58652
-1.68708
-1.3811
-1.73447
-0.522738
0.327998
1.37405
2.56326
1.94281
2.43143
1.32364
-0.787802
-0.022924
1.94745
0.941373
0.398542
-1.13267
1.04515
-0.298355
-0.989794
-1.93447
-1.48026
-1.67823
-0.981197
-1.71625
-0.308516
1.02523
1.54395
-1.63341
-0.135563
-1.43676
-1.17823
0.341192
-1.86156
-0.906399
0.951827
1.77919
0.594916
-1.33488
1.645
1.31507
1.81225
-1.48663
-0.392031
0.299009
0.608182
-1.4349
-1.8091
-0.246113
-1.0453
-0.175801
1.40073
0.932147
1.66318
1.63996
0.719582
-0.669721
-1.71855
-1.82726
-1.60236
-1.11613
-0.155942
-1.66591
-1.1854
-1.76468
-1.72153
-0.536128
-1.35667
-1.22329
-0.13466
-0.284041
1.41373
1.1649
1.78905
0.757485
0.809304
1.18916
1.47153
-0.312347
-1.45592
-0.859347
-1.70343
-1.35337
-1.95462
-0.245783
0.358166
-1.67574
-1.68103
-1.34863
-0.992166
-1.75895
-1.79194
-0.751234
0.825265
1.03352
-1.76869
-1.40468
-1.76754
1.68413
0.976797
0.63567
-1.0076
-1.79718
0.179248
1.27702
1.88985
1.95844
1.59754
0.85765
0.705997
-1.3136
-0.502382
1.43854
1.87947
0.543204
-0.253198
-1.39764
-1.83048
-1.04583
-1.63924
0.101426
-1.02522
0.517518
1.64804
1.50824
1.41953
1.25379
0.920774
0.274759
-0.68588
-1.62171
1.35999
1.83214
1.77341
0.778275
1.82086
1.29163
0.528359
-0.131584
-0.99577
1.61225
1.744
-1.65161
-1.7169
-1.13508
-1.64612
-0.0115553
1.67007
1.22754
-0.831769
0.153318
1.11843
0.067389
1.03035
1.66159
0.0448045
0.210231
1.55652
1.69486
1.53153
0.626034
1.2364
-0.0599298
-1.27694
-1.63887
-1.41033
-0.276434
0.452325
-1.80675
-1.52584
-1.48795
-0.798191
-1.68423
-0.091648
0.446249
-1.06997
1.55296
1.71464
1.10683
0.294128
1.71318
1.79772
1.58291
1.05097
-0.926331
-1.71208
-1.83634
0.182336
-0.858642
1.15472
-0.754419
0.365589
1.08652
1.83275
1.54094
0.98156
1.68705
1.80245
1.1872
0.476403
1.53844
-0.287624
-0.957696
0.472228
-1.45152
-1.7754
-1.15195
-1.66682
-1.54945
-0.728772
-1.8472
-1.75408
-0.673025
-1.86965
-1.82675
-1.31089
-1.71677
-0.968628
0.992413
0.601828
-1.64325
-1.58948
-1.65755
-1.73624
-1.78963
-0.447298
1.22584
1.81569
0.768293
-0.965236
-1.78322
0.819447
0.989211
1.85208
-0.366629
1.32767
1.24697
1.23722
1.77931
1.72006
0.283547
-0.655199
0.873571
-0.506339
-1.64607
0.100703
1.69859
1.28577
-0.61107
-1.8117
-1.70858
-1.34063
1.84219
1.63209
0.606959
-0.613177
-0.0918198
-1.26031
-1.80156
-1.84289
0.541422
1.13592
-1.39228
0.450643
-0.0598694
1.33387
1.74998
1.85138
-0.604344
-1.10332
-1.85269
-0.970762
-0.413657
1.05527
1.84042
1.64402
1.83009
1.58921
-1.72957
-1.4311
-0.167153
1.16186
-0.808318
-0.280419
-1.52311
-1.63431
-1.82717
0.280925
0.81805
1.7778
-1.12621
0.714127
0.113685
1.23283
1.80008
-0.399006
-1.72605
-1.40378
0.375882
1.76938
1.24297
1.59031
1.79282
1.26996
-1.83068
-1.66986
-0.636442
-0.659288
-1.82632
-1.00311
0.895725
-1.38367
0.0154789
-1.67449
1.85912
1.04599
-0.653855
-0.367323
-0.0743767
0.210536
0.522017
0.890917
1.29593
1.8024
1.0719
1.41467
1.83688
1.57919
1.67892
1.80255
1.60356
1.27352
0.378316
-1.49214
0.834933
0.326041
-0.191721
-1.51845
-1.83331
-0.903186
0.657838
1.74615
0.155176
-1.61876
-0.687574
-1.8522
-1.73996
-0.818053
-1.72481
-1.56038
-1.49965
-0.107398
-1.67894
-0.623064
1.47898
1.54002
1.74623
0.374812
0.299022
-1.36513
0.507165
-1.15109
0.698907
0.949161
-0.656817
1.24097
1.52885
0.204791
1.80089
0.861938
1.36046
1.83015
1.16211
-1.80072
-1.79294
-0.554258
1.19063
1.16454
1.8542
1.18754
1.81801
1.15
1.00345
1.12235
-0.55279
-1.64131
-1.51308
-1.73618
-1.79659
-1.82988
-1.84694
-1.84685
-1.81513
-0.981675
0.890658
0.780377
0.867033
-0.925325
0.777046
-1.72322
-1.50521
-1.08742
-0.448658
0.33454
1.78754
1.59178
0.332465
1.0775
1.60148
1.82276
1.28516
0.0538777
-1.27046
-1.85086
-1.251
-0.795115
-0.286654
1.17877
1.42824
1.68177
1.84199
-1.80869
-0.670672
1.05475
-1.82698
-1.84792
1.85361
1.0894
-0.562386
1.33816
1.74234
0.187201
-1.5834
-1.57187
-1.7635
-1.84223
0.87279
0.582395
-1.05362
-0.204344
0.0213731
-1.41943
-1.84188
-1.80605
-1.16534
-1.83061
-0.779018
-1.82285
0.259948
-0.251013
1.49444
1.71505
1.73305
0.909631
1.56392
-0.123432
1.42575
1.33073
-0.492892
1.23959
1.1021
-0.711325
0.912029
1.90868
1.05697
0.984821
0.626806
1.85413
0.857622
-0.248918
0.860806
-1.09511
-1.4488
0.0392839
-1.39867
-1.66494
-0.249676
-0.838516
-0.920987
0.893344
0.0374964
1.13783
1.76234
-0.378649
-1.59618
-1.65923
-0.947606
-0.486572
-0.756075
1.19778
2.56182
1.33999
-1.7677
-1.58619
-0.696635
-1.37222
-1.77004
-1.79056
-1.65085
-0.438967
1.14071
1.22293
-1.56528
-1.55659
-1.5446
-1.48395
-0.244764
1.2686
1.34881
1.92169
0.876627
0.878597
-0.922094
-1.78085
-1.71924
0.704459
0.330038
1.66376
-0.297282
1.38391
1.29239
-1.04654
-1.65802
-0.0703779
-1.49973
-1.76111
2.02695
2.46945
0.821179
1.76332
1.41339
-0.019591
-1.43806
-1.75253
-1.84703
-1.87713
0.0729497
-0.075427
-1.69489
0.651973
-0.751999
-0.595458
1.13969
-0.411746
-1.76741
-1.50109
-0.225589
1.48307
-0.0641375
0.0631927
1.64907
0.156333
-1.58689
-1.69524
-1.64828
-0.0955119
1.4993
1.53203
1.69568
0.280234
1.55235
0.0157873
-1.68968
-1.59042
-1.53643
0.22279
1.69379
0.266381
0.277734
1.68683
0.24342
-1.40733
-1.74445
-1.73322
0.152324
1.55915
0.0163071
-0.131551
1.21202
-1.50838
-1.81715
-0.642913
1.11274
1.7994
0.723143
1.18453
1.27522
-0.488669
-1.41767
-1.79671
-1.7686
-1.09465
-1.86336
-0.898286
0.846652
-1.89052
-1.85384
-1.25072
1.77367
1.21436
-0.248594
1.18359
1.83343