# vtk DataFile Version 3.1
vtk output
ASCII
DATASET POLYDATA
POINTS 10242 FLOAT
-7.61101e-08 -2.82396e-18            1
0.723607 0.525731 0.447213
-0.276394  0.850651  0.447213
  -0.894427 5.46272e-18    0.447213
-0.276394 -0.850651  0.447213
 0.723607 -0.525731  0.447213
    0.894427 -4.35705e-18    -0.447213
 0.276394  0.850651 -0.447213
-0.723607  0.525731 -0.447213
-0.723607 -0.525731 -0.447213
 0.276394 -0.850651 -0.447213
7.61101e-08 3.92964e-18          -1
0.425325 0.309017 0.850651
 0.425325 -0.309017  0.850651
    0.850651 -8.96408e-09     0.525731
0.262865 0.809017 0.525731
-0.16246      0.5 0.850651
-0.688191       0.5  0.525731
  -0.525731 3.01954e-18    0.850651
-0.688191      -0.5  0.525731
-0.16246     -0.5 0.850651
 0.262865 -0.809017  0.525731
    0.951057    -0.309017 -7.95955e-19
   0.951057    0.309017 1.20782e-18
 0.688191       0.5 -0.525731
   0.587785    0.809017 7.95955e-19
1.99291e-17           1           0
-0.262865  0.809017 -0.525731
  -0.587785    0.809017 7.95955e-19
-0.951057  0.309017         0
  -0.850651 8.96408e-09   -0.525731
  -0.951057   -0.309017 7.95955e-19
-0.587785 -0.809017         0
-0.262865 -0.809017 -0.525731
-2.23446e-17           -1  7.95955e-19
 0.587785 -0.809017         0
 0.688191      -0.5 -0.525731
    0.525731 -5.22261e-18    -0.850651
  0.16246       0.5 -0.850651
  0.16246      -0.5 -0.850651
-0.425325  0.309017 -0.850651
-0.425325 -0.309017 -0.850651
0.202786 0.147333 0.968076
 0.202786 -0.147333  0.968076
    0.455363 -3.02204e-18     0.890306
 0.668267 -0.154685  0.727662
 0.609818 -0.443059  0.657131
 0.812604 -0.295727  0.502216
0.668267 0.154685 0.727662
0.812604 0.295727 0.502216
0.609818 0.443059 0.657131
 0.53236 0.681448 0.502216
0.353619  0.58776 0.727662
0.0593922  0.683361  0.727661
-0.0301442   0.864217   0.502216
-0.232931  0.716884  0.657131
0.140715 0.433076 0.890306
-0.0774574   0.238389   0.968076
-0.483587  0.716884  0.502216
-0.449719  0.517941  0.727661
-0.631561  0.267655  0.727662
-0.831234  0.238389  0.502216
  -0.753776 4.80946e-18    0.657131
-0.368396  0.267656  0.890306
   -0.250657 -9.61891e-19     0.968076
-0.831234 -0.238389  0.502216
-0.631561 -0.267655  0.727662
-0.449719 -0.517941  0.727661
-0.483587 -0.716884  0.502216
-0.232931 -0.716884  0.657131
-0.368396 -0.267656  0.890306
-0.0774574  -0.238389   0.968076
-0.0301442  -0.864217   0.502216
0.0593922 -0.683361  0.727661
0.353619 -0.58776 0.727662
  0.53236 -0.681448  0.502216
 0.140715 -0.433076  0.890306
 0.860475 -0.443058   0.25156
 0.949698 -0.154685  0.272297
    0.999958 -3.02203e-18   0.00913221
 0.956562 -0.147333  -0.25156
0.956562 0.147333 -0.25156
0.949698 0.154685 0.272297
0.860475 0.443058  0.25156
 0.831234  0.238389 -0.502216
 0.859244  0.433076 -0.272297
 0.677401  0.683362 -0.272297
 0.483587  0.716884 -0.502216
0.435715 0.864216 -0.25156
   0.808983    0.587761 -0.00913221
0.687276 0.681447  0.25156
0.155473 0.955273 -0.25156
  0.309003   0.951017 0.00913221
0.146359 0.951017 0.272297
-0.155473  0.955273   0.25156
0.440587 0.855417 0.272297
0.0301442  0.864217 -0.502216
-0.146359  0.951017 -0.272297
-0.440587  0.855417 -0.272297
 -0.53236  0.681448 -0.502216
-0.687276  0.681447  -0.25156
  -0.309003    0.951017 -0.00913221
-0.435715  0.864216   0.25156
-0.860475  0.443058  -0.25156
 -0.808983   0.587761 0.00913221
-0.859244  0.433076  0.272297
-0.956562  0.147333   0.25156
-0.677401  0.683362  0.272297
-0.812604  0.295727 -0.502216
-0.949698  0.154685 -0.272297
-0.949698 -0.154685 -0.272297
-0.812604 -0.295727 -0.502216
-0.860475 -0.443058  -0.25156
  -0.999958 3.32424e-18 -0.00913221
-0.956562 -0.147333   0.25156
-0.687276 -0.681447  -0.25156
 -0.808983  -0.587761 0.00913221
-0.677401 -0.683362  0.272297
-0.435715 -0.864216   0.25156
-0.859244 -0.433076  0.272297
 -0.53236 -0.681448 -0.502216
-0.440587 -0.855417 -0.272297
-0.146359 -0.951017 -0.272297
0.0301442 -0.864217 -0.502216
 0.155473 -0.955273  -0.25156
  -0.309003   -0.951017 -0.00913221
-0.155473 -0.955273   0.25156
 0.435715 -0.864216  -0.25156
  0.309003  -0.951017 0.00913221
 0.440587 -0.855417  0.272297
 0.687276 -0.681447   0.25156
 0.146359 -0.951017  0.272297
 0.483587 -0.716884 -0.502216
 0.677401 -0.683362 -0.272297
 0.859244 -0.433076 -0.272297
 0.831234 -0.238389 -0.502216
   0.808983   -0.587761 -0.00913221
    0.250657 -9.61891e-19    -0.968076
0.0774574  0.238389 -0.968076
 0.368396  0.267656 -0.890306
 0.449719  0.517941 -0.727661
 0.232931  0.716884 -0.657131
 0.631561  0.267655 -0.727662
    0.753776 -4.80946e-18    -0.657131
 0.232931 -0.716884 -0.657131
 0.449719 -0.517941 -0.727661
 0.368396 -0.267656 -0.890306
0.0774574 -0.238389 -0.968076
 0.631561 -0.267655 -0.727662
-0.202786  0.147333 -0.968076
-0.140715  0.433076 -0.890306
-0.353619   0.58776 -0.727662
-0.609818  0.443059 -0.657131
-0.0593922   0.683361  -0.727661
-0.202786 -0.147333 -0.968076
  -0.455363 3.32424e-18   -0.890306
-0.668267 -0.154685 -0.727662
-0.609818 -0.443059 -0.657131
-0.668267  0.154685 -0.727662
-0.0593922  -0.683361  -0.727661
-0.353619  -0.58776 -0.727662
-0.140715 -0.433076 -0.890306
0.0927642 0.0673972  0.993404
 0.0927642 -0.0673972   0.993404
    0.213262 -1.15757e-18     0.976995
  0.332317 -0.0772106   0.940002
 0.316216 -0.229745  0.920448
 0.447504 -0.156604  0.880463
 0.332317 0.0772106  0.940002
0.447504 0.156604 0.880463
0.316216 0.229745 0.920448
0.552956 -0.23322 0.799905
 0.524626 -0.381163  0.761237
 0.644597 -0.304096  0.701442
 0.718218 -0.366871  0.591243
 0.677349 -0.492123  0.546822
 0.770113 -0.424725  0.475956
 0.750869 -0.226885  0.620257
 0.840843 -0.151418  0.519669
  0.768504 -0.0766153   0.635241
 0.768504 0.0766153  0.635241
0.840843 0.151418 0.519669
0.750869 0.226885 0.620257
0.718218 0.366871 0.591243
0.770113 0.424725 0.475956
0.677349 0.492123 0.546822
0.644597 0.304096 0.701442
0.524626 0.381163 0.761237
0.552956  0.23322 0.799905
  0.568536 -0.0785208   0.818903
    0.676611 -3.14604e-18     0.736341
 0.568536 0.0785208  0.818903
0.641916 0.601174 0.475955
0.570857 0.569697 0.591243
0.447812 0.644007 0.620257
0.403843 0.752898 0.519669
0.310346 0.707216 0.635241
0.488404 0.519078 0.701441
0.392679 0.453824 0.799904
0.164614 0.754567 0.635241
0.115827 0.846481 0.519668
0.0162503   0.78423  0.620257
-0.126975  0.796435  0.591244
-0.165959  0.863669  0.475955
-0.258724  0.796271  0.546822
-0.0900209   0.707019   0.701441
-0.200389  0.616735  0.761237
-0.0509326   0.597963   0.799904
-0.0106535   0.473995   0.880463
-0.120784  0.371735  0.920448
0.0292599  0.339911  0.940002
0.0659015  0.202824  0.976995
-0.035433  0.109051  0.993404
0.176123 0.292193 0.940002
0.287227 0.377208 0.880463
0.209084 0.643495 0.736341
0.101009 0.564974 0.818903
0.250364 0.516446 0.818903
-0.373387  0.796272  0.475956
-0.365409  0.718963  0.591243
-0.474106  0.624904  0.620257
-0.591255  0.616735  0.519668
-0.5767  0.5137 0.63524
-0.342747  0.624904  0.701441
-0.310268    0.5137  0.799904
-0.666767  0.389732  0.635241
-0.769258  0.371735  0.519668
-0.740826  0.257795  0.620257
-0.796692  0.125352  0.591244
-0.872682  0.109051  0.475955
  -0.837249 8.51128e-18    0.546821
-0.700234  0.132866  0.701441
  -0.648474 3.86034e-18    0.761237
-0.584435   0.13634  0.799904
-0.454088   0.13634  0.880463
  -0.390865 1.93018e-18    0.920448
-0.314234  0.132866  0.940002
-0.172533  0.125352  0.976995
   -0.114663 -2.68375e-18     0.993404
-0.223468  0.257796  0.940002
-0.269989  0.389732  0.880463
-0.547389  0.397703  0.736341
-0.50611 0.270652 0.818902
-0.413801  0.397703  0.818902
-0.872682 -0.109051  0.475955
-0.796692 -0.125352  0.591244
-0.740826 -0.257795  0.620257
-0.769258 -0.371735  0.519668
-0.666767 -0.389732  0.635241
-0.700234 -0.132866  0.701441
-0.584435  -0.13634  0.799904
-0.5767 -0.5137 0.63524
-0.591255 -0.616735  0.519668
-0.474106 -0.624904  0.620257
-0.365409 -0.718963  0.591243
-0.373387 -0.796272  0.475956
-0.258724 -0.796271  0.546822
-0.342747 -0.624904  0.701441
-0.200389 -0.616735  0.761237
-0.310268   -0.5137  0.799904
-0.269989 -0.389732  0.880463
-0.120784 -0.371735  0.920448
-0.223468 -0.257796  0.940002
-0.172533 -0.125352  0.976995
-0.035433 -0.109051  0.993404
-0.314234 -0.132866  0.940002
-0.454088  -0.13634  0.880463
-0.547389 -0.397703  0.736341
-0.413801 -0.397703  0.818902
 -0.50611 -0.270652  0.818902
-0.165959 -0.863669  0.475955
-0.126975 -0.796435  0.591244
0.0162503  -0.78423  0.620257
 0.115827 -0.846481  0.519668
 0.164614 -0.754567  0.635241
-0.0900209  -0.707019   0.701441
-0.0509326  -0.597963   0.799904
 0.310346 -0.707216  0.635241
 0.403843 -0.752898  0.519669
 0.447812 -0.644007  0.620257
 0.570857 -0.569697  0.591243
 0.641916 -0.601174  0.475955
 0.488404 -0.519078  0.701441
 0.392679 -0.453824  0.799904
 0.287227 -0.377208  0.880463
 0.176123 -0.292193  0.940002
0.0659015 -0.202824  0.976995
0.0292599 -0.339911  0.940002
-0.0106535  -0.473995   0.880463
 0.209084 -0.643495  0.736341
 0.250364 -0.516446  0.818903
 0.101009 -0.564974  0.818903
 0.792012 -0.492122  0.361293
 0.850021 -0.366871  0.377981
  0.91566 -0.304096  0.262853
 0.915491 -0.381163  0.128804
0.962746 -0.23322 0.136851
 0.890574 -0.226885   0.39421
  0.911862 -0.0766153   0.403284
   0.98764  -0.156604 0.00650545
  0.96469 -0.229745 -0.128804
   0.98938 -0.0772107  -0.123148
    0.969225 -1.15756e-18    -0.246179
  0.930013 -0.0673972  -0.361293
 0.930013 0.0673972 -0.361293
  0.98938 0.0772107 -0.123148
  0.96469  0.229745 -0.128804
   0.98764   0.156604 0.00650545
0.962746  0.23322 0.136851
0.915491 0.381163 0.128804
 0.91566 0.304096 0.262853
0.850021 0.366871 0.377981
0.792012 0.492122 0.361293
0.890574 0.226885  0.39421
 0.911862 0.0766153  0.403284
  0.986706 -0.0785208    0.14229
 0.986706 0.0785208   0.14229
    0.961193 -3.14604e-18     0.275878
 0.872682  0.109051 -0.475955
 0.903323  0.202824 -0.377981
0.853849 0.339911 -0.39421
 0.769258  0.371735 -0.519668
 0.782745  0.473995 -0.403284
 0.919528  0.292193 -0.262853
 0.915961  0.377209 -0.136851
[...]
POINT_DATA 10242
SCALARS Field double
LOOKUP_TABLE default
-0.61776
1.59603
0.380081
-1.33223
-1.54611
-0.816578
1.17814
-1.33254
-1.79312
0.18726
0.774811
-0.517112
1.42192
-0.245907
1.81933
-1.09895
-0.519361
-1.62643
-1.48253
-0.500558
-0.952959
0.461932
1.36328
1.39694
1.13803
0.00893018
-0.590542
0.0445958
-0.943729
-1.646
-1.81852
-1.52011
-0.832828
-1.38596
-0.57297
-0.0565957
-0.0317722
1.23909
-0.593331
-0.0212828
-1.6724
-0.466498
-1.37638
-0.579408
1.79977
-1.65891
1.01081
1.15056
-1.53724
1.43113
-1.71587
-0.055781
0.857926
1.31236
-0.835834
-0.469174
-1.45879
1.66212
-1.06185
1.54708
1.73667
-1.63888
1.10603
-1.80863
1.47492
-1.61664
1.07314
0.156568
-0.655635
1.60577
-0.221531
0.075942
-0.346277
-0.426206
-0.679589
0.12903
1.07964
-0.705375
-1.75568
1.83573
-1.79725
-1.59736
-1.65413
-1.16311
1.36221
-1.18906
-0.575703
0.129209
0.291576
0.775801
-0.426593
0.5489
-0.545195
0.857124
0.614053
0.553059
-0.325462
0.29464
0.502472
-0.84465
1.17918
-0.582003
0.759562
1.54251
-1.36792
1.5889
1.73324
1.31457
-1.63943
1.74562
1.79003
-1.42374
1.12403
-1.84263
1.79732
0.810601
-0.910188
0.621836
0.844773
1.08517
-0.987235
1.09758
1.00562
-0.781559
0.404165
-0.888821
0.714896
0.138049
-0.175687
-0.144626
-0.0415836
0.0878169
-0.236947
0.132289
-0.74583
1.57408
0.325098
-1.27432
-0.60146
1.45771
-0.879856
1.40318
-1.4369
-0.866324
-0.875792
0.574184
-0.00200475
0.624566
-0.963786
1.46618
0.650329
0.0965671
1.8196
-0.294155
1.21754
-1.7634
1.77124
-0.379048
1.61263
1.38025
1.45932
-1.68962
-0.436795
-2.22971
-1.59734
0.960061
1.87194
1.37759
-0.419974
1.46291
-1.17144
-1.55068
-1.71925
-0.630092
1.81818
1.45402
0.134154
1.20132
1.74319
0.170909
-0.682583
1.60864
-1.09289
-1.06895
1.45922
-0.51026
-1.44765
0.876699
1.15436
-0.377391
-1.80612
0.700195
0.906134
-1.67317
-1.77203
-0.769504
-1.47014
-0.393454
1.80193
-1.32143
-1.11195
-1.4849
-1.76879
-0.278248
-1.68867
0.764147
1.80115
1.3888
-1.39005
-1.4332
-0.678706
1.10249
1.91684
-1.57932
-0.583057
1.34351
1.0365
1.31346
-0.387858
-1.73839
-1.30454
-1.45365
-0.896423
0.898494
1.30609
-0.721647
-1.67314
-0.790012
-1.06109
-1.52996
-1.50768
1.58648
1.28198
0.756836
-1.74358
-0.815396
-0.579468
1.86374
0.872814
-0.66288
-1.59296
1.73507
0.539498
0.703023
-1.81049
-0.0899711
1.18444
-1.00034
1.72198
1.80417
-0.649948
1.8133
-0.38684
1.7767
1.51701
-1.14325
0.668106
0.744757
-1.20345
-1.7677
0.0160404
1.67009
1.83006
0.835251
-1.72747
1.28456
-1.4484
0.271273
-1.8068
-1.69057
-1.03808
1.60867
1.82455
0.201747
1.75072
0.52178
-1.79686
1.71619
0.42809
1.79633
1.81769
-0.35114
-0.0288094
-1.78314
0.837941
1.44799
-1.40626
1.401
0.477031
-0.814384
-1.54891
-1.60369
-1.82937
-1.61828
-1.33149
1.51273
0.960507
-0.998602
-0.157343
1.75342
-0.915991
-0.139655
-1.78933
-0.387395
-0.98384
0.560816
1.05075
1.66863
-1.03794
-1.36957
-1.39806
1.26947
1.3511
1.0649
0.590138
0.20499
-0.515419
-1.83288
1.31304
-1.17069
-1.30104
1.31721
-1.45815
-1.40196
1.35808
-1.63542
0.760964
-1.79159
-1.82995
-0.678431
-1.70566
-0.140211
1.83768
1.82284
0.403741
-1.83475
-1.75149
-0.878247
1.58873
-1.5937
1.10233
-0.926352
1.72831
1.57032
-1.65941
0.549049
1.76326
1.76601
-0.618332
1.79719
-0.332118
-1.70243
-1.7272
0.767484
1.71016
1.78893
1.59373
1.55364
1.63975
1.78781
1.81821
0.114373
-1.82353
-1.70526
0.800257
-1.75677
-0.858586
-1.76631
-1.82574
0.0113499
-1.83532
0.406754
1.78593
-1.82544
-0.253541
-1.7518
-1.507
-1.49324
-1.086
0.825766
1.54739
1.69179
-0.721511
-1.62276
-1.70833
0.5729
1.77563
-1.73649
-0.549364
0.313487
1.76814
1.79272
-0.853852
1.42561
1.17084
0.978763
-1.51735
1.35969
-1.17668
-0.937426
-0.704799
1.66277
0.817899
0.742315
0.848365
0.939729
1.11233
1.36334
1.62503
1.05919
-1.47239
-1.11643
1.48442
-1.29327
-1.72326
-0.880418
-0.797426
-1.6919
-0.471536
1.62953
0.728381
0.0898271
-1.79824
0.775462
1.37463
-0.666602
1.69986
1.52537
-1.27129
-0.79488
-1.77246
0.801693
0.196799
1.81878
0.270048
-0.335221
-1.76998
1.83833
-0.203192
0.338985
1.7487
0.827977
-1.63671
-1.63653
-0.804287
-1.53831
-1.17781
1.69819
1.66502
0.695675
-1.65505
-1.48941
-1.75749
-1.76738
-1.66844
-1.32471
-0.607321
1.51623
1.29976
1.68757
0.743543
1.58076
-0.4298
1.64332
1.47152
-1.30736
1.35914
0.963619
-1.58854
1.39229
-1.23229
1.56166
1.75266
-0.0197013
1.82281
0.744046
-1.7636
-1.67254
-0.778947
1.74332
1.66924
0.888511
-1.52911
1.6406
-0.893309
1.12357
-1.58596
-1.55619
1.8204
0.164098
-1.82895
-1.83461
-0.094329
-1.81247
-0.343535
1.84187
1.84155
-0.0868082
-1.8374
-1.82342
-1.82725
-1.81463
-1.82911
-1.83487
-1.73949
0.394704
1.80966
1.84273
-0.102022
1.83822
0.220102
1.82621
1.81703
-0.355263
1.83562
0.19648
-1.83937
1.80765
0.732586
1.48293
0.657074
1.79564
-1.40031
-1.50685
0.806232
1.76763
-0.209069
1.8342
0.045907
-0.174997
-1.78003
-1.84198
-1.65794
-2.28449
-1.50393
1.38574
1.74428
0.884842
1.14993
1.49774
1.22088
-1.77415
-1.46052
0.115429
1.76045
0.996157
1.77119
1.50974
1.29752
1.24958
1.36603
1.63308
-1.31295
-1.50155
-1.19951
-1.38681
-1.3298
-1.14224
-1.48861
-1.81662
0.181565
1.73389
1.71977
-1.77818
-1.79156
-0.74764
-1.68661
-1.75183
-1.01611
1.18381
-1.05767
1.54877
0.506649
-1.81563
0.189363
-1.26379
-1.80855
1.72411
1.73051
0.170645
-0.205361
-0.498544
1.8074
0.928041
-0.224344
1.48787
0.477014
-1.6678
-0.316161
1.12788
1.20486
-0.158166
1.75215
1.82418
1.81107
1.82406
1.68173
0.39086
-1.79565
-1.76369
-0.403577
-1.70157
1.77114
1.5958
-0.536715
-1.67682
-1.64468
0.596375
-1.51504
1.22077
1.84704
1.09014
-1.66362
-1.75414
-0.911981
-0.0133314
0.62628
0.851442
0.630326
1.65886
-0.923836
0.0948345
1.78566
-0.722294
-1.80639
-1.47834
-1.12544
0.59155
1.47052
-1.08882
-1.38529
-1.75305
0.850783
1.38724
-1.53685
-0.651117
2.15896
-0.508797
-1.35827
1.58782
0.787788
0.826768
-0.464882
-1.63696
-1.55952
-1.95581
-1.89216
-1.29729
-1.49891
-1.55184
-0.783816
0.198079
1.04812
1.56495
1.79541
1.31701
0.690405
1.83566
1.73757
1.54729
1.06593
1.66127
0.55502
0.193816
1.35228
0.129756
-0.919515
-1.68192
-1.47847
-0.56862
0.246546
-1.13019
-0.951272
-1.60099
-1.83461
-1.32936
-0.548104
0.175824
-1.75589
-1.2636
-1.84086
1.51554
1.81623
1.78871
0.953389
0.292297
-0.393282
1.43749
0.674243
1.73717
1.84477
1.51469
1.77374
1.55819
1.83687
1.25288
0.696769
-0.938776
-0.373304
0.959976
1.60055
0.291021
0.919508
1.72794
0.613493
0.376433
1.50107
0.239619
-0.944958
-1.79732
-1.7423
0.213381
1.41864
0.299141
0.497743
1.52583
0.821856
-0.87076
-1.60988
-1.75853
-1.55383
-0.669584
-0.325537
1.11905
1.77154
1.79024
-0.191578
-0.265396
-1.4422
-1.13733
-1.80224
-1.81061
-0.14329
-1.01349
-1.65837
0.611785
1.18818
-1.82224
-1.35122
-0.303605
-1.6088
-1.68413
-0.515629
1.01286
1.77163
1.71387
1.54509
-1.30551
-0.889898
0.223674
1.32456
0.0964856
-0.561558
0.41757
-1.08795
-1.24638
-1.82103
-1.45119
-0.459329
-1.6663
-1.77025
-0.979777
-1.81158
-1.62801
-0.358005
-0.761428
0.327345
1.61467
1.17213
1.61899
1.6382
0.369503
-1.16036
-1.82046
-1.22534
-1.6319
-1.8231
-1.14157
-1.82197
-1.8114
-1.00963
-1.77361
-1.36945
-0.131319
0.0290874
-1.68129
-0.589436
-1.50407
-1.21122
0.0646671
-0.752263
-1.81489
-1.6411
-1.25431
0.227113
1.08594
1.55385
1.66276
1.09067
0.451479
1.75286
1.79664
1.11832
-1.63548
-0.813878
-0.421932
-1.10974
-1.67818
-1.70984
-0.890505
0.0499613
0.696493
-1.61079
-1.64127
-1.48444
1.85
2.35997
1.90248
0.93932
0.667831
0.663437
-0.25688
-1.35183
-1.7956
-1.09176
0.429492
-1.72329
-1.2163
-1.78386
0.546523
-0.339452
-1.0043
-1.35676
0.0445489
1.38201
-0.0842632
1.18159
1.78634
1.14702
-0.0452
-0.317809
-0.360481
-0.153771
0.32983
1.01923
1.61279
1.77658
1.7819
1.09501
1.79539
0.0151222
-1.25365
-1.57071
-0.758847
-1.75097
-1.81779
-1.20841
-1.82674
-1.29133
-1.83416
-1.80735
-1.56065
-1.77196
-1.07758
0.478498
0.190818
1.30505
1.81607
1.80014
1.6463
0.376239
1.59607
0.29637
-1.54231
-0.206578
-0.692129
-1.74462
-1.66083
-1.73244
-1.73464
-1.66643
-1.75258
-0.727823
0.706296
0.762469
-1.77982
-1.59496
-1.8058
-1.82429
-1.43664
-1.8038
-1.2696
-0.33022
0.0809912
1.40839
1.81806
1.80701
0.987716
-0.174909
-0.524586
1.7524
1.69624
1.6849
-0.89933
0.375268
0.579152
-1.6482
-1.7231
-1.67207
-0.664868
0.56709
0.700187
-1.64766
-1.64603
-1.79695
1.62953
1.49947
1.83107
1.44717
0.0483366
2.22976
1.97621
0.678295
-0.978839
-1.81415
-1.21346
-1.75516
-1.75795
-1.67931
0.827541
0.880829
-0.556679
-0.777704
0.749487
1.75274
0.6594
1.67566
1.65952
0.606563
-0.751707
-0.882977
-0.921363
-0.851669
-0.636732
-0.230988
0.959059
1.75511
1.65688
0.56557
1.69124
-1.63304
-1.74739
-1.42435
-1.79806
-0.925098
-0.863724
0.619376
-0.358921
-1.32692
0.170745
0.588362
-0.709144
0.872585
1.5395
1.73028
1.82458
1.53308
0.154691
0.945185
0.326405
-1.18208
1.59359
1.69749
0.631788
1.72576
1.33331
1.02728
-0.390479
1.06854
1.01331
-0.482793
0.858842
1.80877
1.48004
1.41311
0.604981
-0.886543
0.2557
-0.181017
-1.3755
-0.704176
1.18776
1.6945
1.81905
1.19265
0.347133
-0.343859
-1.60871
-1.78788
-1.61299
-0.840727
-1.13524
0.374831
1.69655
1.75242
1.61325
-0.367742
0.64018
1.15433
1.79221
1.37768
1.27018
1.36197
1.25814
0.0786274
0.195791
-1.22676
-0.563253
-0.549738
-1.36828
0.585161
1.45016
1.42117
0.353797
-1.07673
-1.77336
-0.093487
-0.810274
0.771471
1.45223
1.64565
1.73357
1.79252
1.4496
0.118275
1.57334
0.610153
-1.25448
-1.80058
-1.3718
-1.24337
-1.31004
-1.53994
-1.75946
-1.70897
-1.34263
-0.528493
-1.20879
-1.79946
-0.981311
-1.33767
-0.109355
0.409586
-0.689304
0.839309
1.24927
1.81845
1.16709
-0.0434104
1.39366
1.53282
0.370952
1.61036
1.79965
0.885003
1.14029
-0.0172351
-1.44892
-1.0736
-1.66779
-1.5323
-0.467183
1.10868
1.78205
1.43245
1.68851
1.6372
0.481759
1.62189
1.56751
0.306302
1.46015
1.74881
0.885301
0.721721
1.2909
-0.0964407
1.05073
0.729239
-0.602672
1.7076
1.65261
0.465071
-1.09878
-1.83883
-1.19629
-1.45334
-1.64643
-0.419835
1.83341
1.39579
1.12335
0.386008
1.67579
1.70339
0.460883
1.79982
1.78631
1.06712
-1.1922
-2.2315
-2.2521
-2.08457
-0.9821
0.612353
1.63411
1.29648
-0.169092
1.59829
0.889949
1.71969
0.0598258
0.083114
1.30523
1.71496
0.666114
-0.808886
0.722059
-0.688802
-1.73046
-1.65352
-0.772215
-0.453684
-0.314355
-0.389939
-0.669893
-1.09091
-1.72638
-1.64385
-1.7476
-1.53071
-1.72403
-1.47327
-1.22453
-1.77424
-1.58295
-1.73718
-0.844547
-0.380694
-1.02551
0.509662
0.150497
1.27373
1.84271
1.82817
-0.248151
-0.646524
-1.58386
-1.73616
-1.54697
-0.585746
1.02916
1.35543
0.609302
0.123438
-1.83192
-1.83486
-1.35407
1.5937
0.278219
0.670514
-0.535352
-1.69261
-1.4834
1.02569
1.31811
1.8336
-1.83505
-1.27898
-1.54408
-0.765555
0.531318
0.241634
-1.69528
-1.77385
-1.70049
-0.669557
-0.432433
0.833498
1.78211
1.8303
1.53901
1.69142
1.77307
1.54003
-1.21872
-0.935915
0.235341
0.240816
0.0159768
-1.2244
-1.84129
-1.83511
-1.27816
-1.82859
-1.52453
-1.78423
0.0594274
0.172095
1.31486
1.82262
1.81739
1.8269
1.83073
1.82128
1.79152
1.72181
1.58284
0.865125
-0.710489
-0.448394
-0.0642247
1.19194
-0.230809
1.73357
1.55991
1.32277
0.593251
-1.01016
1.04987
0.765702
0.490577
-0.804028
-1.69123
-1.7652
-1.00111
0.245198
-1.29152
-1.8362
-0.172999
-1.53831
-1.31239
1.25084
0.165871
0.138518
1.34953
0.111505
-1.09478
-1.81458
0.0694267
1.35393
0.000370549
-0.0964809
1.24684
-0.226501
-1.37505
-1.83818
-1.84796
-1.29955
0.127973
-0.0421907
1.21947
1.84631
-0.225797
-1.49808
-1.23658
-1.84503
-1.83439
-0.392929
0.980263
-0.593564
-0.823088
0.475558
-1.07235
-1.72171
-1.61913
-1.71337
-1.31786
-0.266321
-1.52751
-1.68477
-1.05225
-1.76646
-1.78392
-0.950782
-1.13788
0.0853753
1.42938
1.30222
1.84088
1.27677
1.40627
1.14939
0.981741
-0.366126
-1.83053
-1.32737
-1.49111
0.205646
-1.25927
-1.10272
-1.8049
-1.48019
-1.60585
-0.932928
-0.755303
0.595906
-0.674258
0.771802
0.517886
1.44073
1.81867
0.317686
-1.03838
-1.80918
-1.49013
-0.191712
1.25242
-0.385027
0.943282
-0.571679
-1.70194
-1.7666
-1.67949
-1.54561
-1.77702
-0.762546
-1.81577
-1.06751
0.805761
1.78423
1.52599
1.62719
1.70813
1.77061
1.81333
1.83802
1.47314
0.294405
0.630464
1.65597
0.460919
-1.77838
-1.65144
-0.75592
-0.783283
0.579162
-0.812544
0.452947
1.6247
1.61677
1.76
0.84582
0.861685
-0.612631
0.849477
-0.597562
0.880911
0.943234
-0.456795
1.0342
1.14886
-0.174609
1.82064
1.52194
1.61666
1.7753
1.58453
-1.6795
-1.66665
-1.71399
-0.719561
-0.770197
0.689455
-0.6703
0.827943
-0.637817
1.66237
1.61068
1.76137
1.08073
1.22655
0.879035
0.676317
0.49687
0.371094
0.312823
0.327347
1.55796
1.77914
1.77146
1.71291
1.64917
1.74945
0.419719
0.586753
0.816742
1.09114
1.71497
1.61261
1.69879
1.37253
1.60994
1.76674
1.73505
1.045
-0.154275
-1.32674
-1.84028
-1.39444
-1.15941
-0.996273
0.355724
1.83021
1.28833
1.47859
-1.68656
-1.69839
-0.633711
-1.6845
-1.66921
0.850266
1.7718
1.58266
1.74785
0.701475
-0.852013
-1.79231
-1.50257
-1.58238
-1.63637
-0.666873
-0.739916
-1.72548
-1.12283
-1.73997
-1.66225
-0.578405
-1.56725
-1.71477
-0.870116
-1.46343
-0.125733
-1.37865
-1.33106
0.0702257
-1.32377
-1.83329
-1.16202
-1.12827
0.337202
1.54701
1.56799
1.77714
0.888292
1.59371
0.483458
-1.80274
-1.06379
-0.973864
-1.36454
-0.0616691
-1.44993
-1.56167
-0.523821
-1.68315
-1.80171
-0.896438
-1.02999
-1.7846
-1.18426
-1.82799
-1.79895
-1.70669
-1.70753
-1.30922
0.0183193
-0.2356
1.00853
1.81583
1.77843
1.62831
0.432034
0.572927
1.72746
1.66925
0.650583
-1.6553
-0.490565
-0.71496
-0.82651
-1.77699
-1.74022
-1.67363
-0.578345
-0.691719
-1.70465
-1.67514
-0.638409
0.639659
1.66029
1.60295
1.79503
1.20434
1.58514
0.566813
-0.802222
-1.73527
-1.6553
-0.565692
-1.65124
-0.552552
-1.65698
-0.770321
-0.806328
-1.72883
-1.83541
-1.11454
0.38774
-1.15755
0.284825
1.61307
1.73846
0.695815
0.793367
0.863633
0.904202
0.917872
0.910902
1.79231
1.53582
1.57032
1.78445
1.5437
-1.66022
-0.916124
0.359553
0.433366
1.49634
0.223584
1.32142
1.81953
1.8038
1.0767
-0.369468
-0.496868
-1.58286
-0.248579
-1.44604
-0.125914
0.00385945
-1.27864
0.141305
0.285554
-1.06343
1.45587
1.83463
1.83091
1.26311
1.83818
-1.77552
-1.73181
-0.831322
0.654565
0.776645
1.69562
0.55167
1.62735
0.456964
1.71455
1.67433
0.796688
-0.477575
-0.481882
-0.521495
-0.564886
-0.591268
-0.592262
-0.565243
-0.502948
0.884597
1.79364
1.77624
1.73758
0.831014
1.75732
-0.402411
-0.258526
-0.0666853
0.172018
1.23036
1.8435
1.84128
0.448037
0.734486
1.00514
1.72106
1.73326
0.907578
-0.435716
-1.55404
-1.80922
-0.280933
-0.127532
1.19759
1.50045
1.79322
1.82936
-1.80449
-1.02988
0.361248
-1.82586
-1.83937
1.54325
1.81216
1.01438
1.82936
1.4096
0.0164754
-1.38371
-1.83165
-1.84331
-1.84513
0.259741
0.146115
-1.20403
-1.77006
-1.69267
-1.72902
-1.66834
-1.75075
-0.86847
0.468818
-1.74742
-1.6497
-1.72076
-1.66183
-1.75694
-1.552
-0.666119
0.877212
0.711427
1.68303
1.68754
1.74437
0.86809
-0.635251
1.77938
1.58375
-0.862527
0.588367
0.510096
-1.38108
-1.84159
-1.13836
-0.820516
-1.66323
-0.441049
0.429226
1.6643
1.49281
-0.0252288
-1.08496
0.387199
0.758075
-0.215509
1.02679
1.57739
1.7832
1.83401
1.3297
-0.0826174
0.192771
-1.05643
-1.83701
-1.78628
0.493808
0.791433
1.68373
1.10068
1.83971
1.78364
-1.66713
-0.468197
-0.760294
0.501363
1.66643
1.49903
-1.02851
-1.25592
-1.83038
1.83461
1.2362
1.46203
0.582036
-0.695382
1.59849
1.77841
0.925845
-0.541274
-1.66627
-1.71044
-1.57215
-1.81741
-1.43728
1.302
1.10302
-0.0889339
-0.217639
1.28973
1.83943
1.07686
1.80261
1.06254
-0.502708
-1.68692
-1.54223
-1.36313
-1.16862
-0.974834
-0.79365
0.554305
1.59791
1.29163
0.0824237
1.4693
1.08211
1.75072
1.692
1.70125
0.784662
1.72351
0.945489
-0.585859
-0.564998
-1.64536
-1.74977
-1.75652
-0.807449
-1.75321
-0.836285
-1.76912
-1.79626
-1.02613
-1.82612
-1.84512
-1.34948
-1.4306
-0.306128
-0.559088
-1.60417
-0.467919
0.64307
0.608632
1.6849
1.71802
1.73772
0.771866
1.70002
0.638333
1.69029
-0.577896
-0.46937
-1.57385
-1.80993
-1.81789
-1.77023
-1.70992
-1.63916
-1.58866
-1.57668
-1.60587
-1.77191
-0.851461
-0.846889
-0.696563
-1.71729
-0.791354
-1.67537
-1.76268
-1.82716
-1.82502
-1.53881
-0.187114
-0.467234
-1.70972
-1.45864
-1.09276
-0.15697
0.917127
1.68903
1.78275
1.0756
-0.175645
1.83808
1.84028
1.30305
-1.00952
0.541674
0.158627
0.659844
1.70143
1.69517
0.644652
0.587357
0.654303
-0.79396
-1.73875
-0.668597
0.891707
1.80688
1.46702
0.0912571
0.312017
0.477924
1.72068
1.76138
1.64997
-0.105119
0.943342
0.735114
-0.733896
0.513169
1.71111
1.73774
0.301801
-1.17865
0.131103
0.0183374
-1.37522
-0.0286956
1.40041
1.83217
1.82371
1.04126
-0.377666
-0.439761
-1.61475
-1.76847
-0.508486
0.879673
1.558
1.80635
1.77717
-0.00385303
-1.34121
0.0948517
0.262604
-1.04752
0.492347
1.46427
1.79932
1.82239
0.764785
-0.433346
1.04221
1.29487
0.408299
1.4727
1.80862
1.46752
1.58267
0.574589
-0.918663
-0.784262
-1.72159
-1.63737
-1.69091
-0.646252
-0.520309
0.892105
1.6644
1.6838
1.75526
-0.684587
0.835369
0.73248
1.70309
1.67264
1.71541
0.646868
0.586425
-0.84777
0.82946
-0.572941
-0.453595
-1.46497
-1.81703
-0.419303
0.891413
1.74907
1.64779
0.574767
-0.866222
0.553888
-0.902924
0.555725
1.74124
1.75143
1.64661
1.35611
1.83129
1.08327
1.83388
1.12673
-0.419168
-1.6251
-1.73225
-1.76073
-1.77816
-1.78565
-1.78523
-1.77904
-1.56679
-0.335655
-0.353335
-1.56181
-0.325754
1.50743
1.81881
1.33002
1.34028
0.126735
1.37413
0.258706
-1.18676
-1.19055
-1.83207
-1.39221
-1.3813
-0.0760169
-1.40785
-0.124844
-1.43281
-1.47097
-0.248517
-1.52158
-1.57881
-0.455479
-1.79319
-1.0306
-1.16548
-1.82352
-1.11474
1.29299
1.30577
1.84256
1.27428
1.27045
-0.0519479
1.26616
-0.124652
1.25867
-1.31015
-1.28583
-1.83328
-1.49277
-1.54721
-1.38947
-1.27409
-1.15699
-1.06448
-1.0129
-1.00611
-1.8179
-1.4574
-1.44098
-1.3592
-1.8339
-1.40643
-1.0519
-1.14838
-1.28087
-1.43783
-1.83742
-1.24601
-1.34791
-1.59501
-1.71802
-1.79524
-1.64261
-0.751149
0.563225
1.60972
1.78137
0.945463
1.53507
1.45565
0.229536
-1.80351
-0.940366
-1.10885
1.2849
1.84248
1.25976
1.27038
1.2441
-0.13943
-1.4483
-1.82062
-1.41292
-0.0247885
1.38037
1.82886
1.04759
1.13296
1.19929
1.28026
1.32105
1.84104
0.510646
1.42013
1.29466
-0.0425564
1.17725
1.82863
1.38642
1.09028
-0.345021
1.06544
1.11478
-0.252726
1.23626
1.82226
1.40415
1.45245
0.190176
-1.22629
-1.19399
-1.83641
-1.36564
-1.18659
0.170684
1.81972
1.45807
1.43283
1.41596
0.304413
1.61495
1.77658
1.18707
1.83604
1.7021
0.505864
0.864304
1.73283
1.79976
1.447
1.01147
1.55614
0.119956
-0.891544
-1.64921
-1.81629
-1.24974
-0.114709
-1.84079
-1.7811
-1.08319
1.12923
-0.423091
0.064142
1.0891
1.7887
1.67374
0.799884
1.69176
1.57991
0.544005
-0.42014
-1.42582
-1.82873
-1.32011
-0.084346
1.23417
1.83977
1.33655
-0.0216902
1.39158
0.159568
1.47448
1.01596
1.15582
1.81446
1.84023
1.12696
-0.433458
1.30065
0.0138058
-1.66447
-1.67951
-0.473226
-0.771073
-0.998823
-1.16139
-1.2678
-1.33144
-1.84312
-1.29277
-1.52563
-1.82687
-1.39567
-1.13642
-1.6247
-2.14856
-2.25668
-1.95156
-1.29586
-2.10163
-1.42272
-1.79464
0.354918
1.02517
1.63087
1.58925
1.01449
0.247202
1.81941
1.27027
1.87255
1.86739
1.51983
1.84869
1.82872
1.40534
1.80673
1.16286
-0.0839473
-0.171455
-0.0622207
1.21107
-0.196632
-1.30243
-1.71993
-1.78085
-0.836026
-0.030723
0.777073
-1.38154
-0.456394
-1.68024
1.76661
1.79266
1.50076
0.278305
-0.352436
0.798865
1.20455
1.49259
1.67677
1.77808
1.82733
1.64891
0.39605
0.739039
1.50058
1.82986
1.12771
1.84657
1.84946
1.84675
1.84516
1.25294
-0.134532
-0.122183
1.84171
1.83256
1.81606
1.7602
1.4848
0.591733
0.273751
-1.14321
-1.77573
-1.83049
-1.32661
-0.194531
0.0691885
-1.84114
-1.84133
-1.40433
1.28566
0.0586208
-0.0735938
-0.755279
-1.59652
-1.80933
-0.274469
0.059852
-1.15999
0.137617
1.38578
-0.0325481
-1.41557
-1.84124
-1.13442
0.22531
0.284873
0.238986
-1.84465
-1.84452
-1.22708
-0.348384
-0.829452
-1.73593
-1.77506
-1.55756
-1.15742
-1.37481
-0.285279
0.694716
1.22142
1.78789
1.41884
0.999995
1.50656
1.62704
0.473469
-0.896111
-0.90322
-1.76882
-1.53729
-1.44433
-1.5531
-1.50141
-1.27423
-1.03292
-1.80901
-0.548596
-1.42154
-1.66936
-1.6794
-0.730872
-0.858402
-1.68992
-1.42043
-0.569348
-0.0303927
1.37792
0.148619
-0.367847
0.348295
-1.16452
-1.5804
-1.17193
0.0519329
1.3444
1.7673
0.326095
0.820631
-0.728398
-1.32266
-1.57965
-1.65301
0.961618
-0.576203
-1.69418
-1.613
-1.05505
-1.53492
-0.162819
-0.432668
1.01809
1.7887
1.48033