# vtk DataFile Version 3.1
vtk output
ASCII
DATASET POLYDATA
POINTS 10242 FLOAT
-7.61101e-08 -2.82396e-18            1
0.723607 0.525731 0.447213
-0.276394  0.850651  0.447213
  -0.894427 5.46272e-18    0.447213
-0.276394 -0.850651  0.447213
 0.723607 -0.525731  0.447213
    0.894427 -4.35705e-18    -0.447213
 0.276394  0.850651 -0.447213
-0.723607  0.525731 -0.447213
-0.723607 -0.525731 -0.447213
 0.276394 -0.850651 -0.447213
7.61101e-08 3.92964e-18          -1
0.425325 0.309017 0.850651
 0.425325 -0.309017  0.850651
    0.850651 -8.96408e-09     0.525731
0.262865 0.809017 0.525731
-0.16246      0.5 0.850651
-0.688191       0.5  0.525731
  -0.525731 3.01954e-18    0.850651
-0.688191      -0.5  0.525731
-0.16246     -0.5 0.850651
 0.262865 -0.809017  0.525731
    0.951057    -0.309017 -7.95955e-19
   0.951057    0.309017 1.20782e-18
 0.688191       0.5 -0.525731
   0.587785    0.809017 7.95955e-19
1.99291e-17           1           0
-0.262865  0.809017 -0.525731
  -0.587785    0.809017 7.95955e-19
-0.951057  0.309017         0
  -0.850651 8.96408e-09   -0.525731
  -0.951057   -0.309017 7.95955e-19
-0.587785 -0.809017         0
-0.262865 -0.809017 -0.525731
-2.23446e-17           -1  7.95955e-19
 0.587785 -0.809017         0
 0.688191      -0.5 -0.525731
    0.525731 -5.22261e-18    -0.850651
  0.16246       0.5 -0.850651
  0.16246      -0.5 -0.850651
-0.425325  0.309017 -0.850651
-0.425325 -0.309017 -0.850651
0.202786 0.147333 0.968076
 0.202786 -0.147333  0.968076
    0.455363 -3.02204e-18     0.890306
 0.668267 -0.154685  0.727662
 0.609818 -0.443059  0.657131
 0.812604 -0.295727  0.502216
0.668267 0.154685 0.727662
0.812604 0.295727 0.502216
0.609818 0.443059 0.657131
 0.53236 0.681448 0.502216
0.353619  0.58776 0.727662
0.0593922  0.683361  0.727661
-0.0301442   0.864217   0.502216
-0.232931  0.716884  0.657131
0.140715 0.433076 0.890306
-0.0774574   0.238389   0.968076
-0.483587  0.716884  0.502216
-0.449719  0.517941  0.727661
-0.631561  0.267655  0.727662
-0.831234  0.238389  0.502216
  -0.753776 4.80946e-18    0.657131
-0.368396  0.267656  0.890306
   -0.250657 -9.61891e-19     0.968076
-0.831234 -0.238389  0.502216
-0.631561 -0.267655  0.727662
-0.449719 -0.517941  0.727661
-0.483587 -0.716884  0.502216
-0.232931 -0.716884  0.657131
-0.368396 -0.267656  0.890306
-0.0774574  -0.238389   0.968076
-0.0301442  -0.864217   0.502216
0.0593922 -0.683361  0.727661
0.353619 -0.58776 0.727662
  0.53236 -0.681448  0.502216
 0.140715 -0.433076  0.890306
 0.860475 -0.443058   0.25156
 0.949698 -0.154685  0.272297
    0.999958 -3.02203e-18   0.00913221
 0.956562 -0.147333  -0.25156
0.956562 0.147333 -0.25156
0.949698 0.154685 0.272297
0.860475 0.443058  0.25156
 0.831234  0.238389 -0.502216
 0.859244  0.433076 -0.272297
 0.677401  0.683362 -0.272297
 0.483587  0.716884 -0.502216
0.435715 0.864216 -0.25156
   0.808983    0.587761 -0.00913221
0.687276 0.681447  0.25156
0.155473 0.955273 -0.25156
  0.309003   0.951017 0.00913221
0.146359 0.951017 0.272297
-0.155473  0.955273   0.25156
0.440587 0.855417 0.272297
0.0301442  0.864217 -0.502216
-0.146359  0.951017 -0.272297
-0.440587  0.855417 -0.272297
 -0.53236  0.681448 -0.502216
-0.687276  0.681447  -0.25156
  -0.309003    0.951017 -0.00913221
-0.435715  0.864216   0.25156
-0.860475  0.443058  -0.25156
 -0.808983   0.587761 0.00913221
-0.859244  0.433076  0.272297
-0.956562  0.147333   0.25156
-0.677401  0.683362  0.272297
-0.812604  0.295727 -0.502216
-0.949698  0.154685 -0.272297
-0.949698 -0.154685 -0.272297
-0.812604 -0.295727 -0.502216
-0.860475 -0.443058  -0.25156
  -0.999958 3.32424e-18 -0.00913221
-0.956562 -0.147333   0.25156
-0.687276 -0.681447  -0.25156
 -0.808983  -0.587761 0.00913221
-0.677401 -0.683362  0.272297
-0.435715 -0.864216   0.25156
-0.859244 -0.433076  0.272297
 -0.53236 -0.681448 -0.502216
-0.440587 -0.855417 -0.272297
-0.146359 -0.951017 -0.272297
0.0301442 -0.864217 -0.502216
 0.155473 -0.955273  -0.25156
  -0.309003   -0.951017 -0.00913221
-0.155473 -0.955273   0.25156
 0.435715 -0.864216  -0.25156
  0.309003  -0.951017 0.00913221
 0.440587 -0.855417  0.272297
 0.687276 -0.681447   0.25156
 0.146359 -0.951017  0.272297
 0.483587 -0.716884 -0.502216
 0.677401 -0.683362 -0.272297
 0.859244 -0.433076 -0.272297
 0.831234 -0.238389 -0.502216
   0.808983   -0.587761 -0.00913221
    0.250657 -9.61891e-19    -0.968076
0.0774574  0.238389 -0.968076
 0.368396  0.267656 -0.890306
 0.449719  0.517941 -0.727661
 0.232931  0.716884 -0.657131
 0.631561  0.267655 -0.727662
    0.753776 -4.80946e-18    -0.657131
 0.232931 -0.716884 -0.657131
 0.449719 -0.517941 -0.727661
 0.368396 -0.267656 -0.890306
0.0774574 -0.238389 -0.968076
 0.631561 -0.267655 -0.727662
-0.202786  0.147333 -0.968076
-0.140715  0.433076 -0.890306
-0.353619   0.58776 -0.727662
-0.609818  0.443059 -0.657131
-0.0593922   0.683361  -0.727661
-0.202786 -0.147333 -0.968076
  -0.455363 3.32424e-18   -0.890306
-0.668267 -0.154685 -0.727662
-0.609818 -0.443059 -0.657131
-0.668267  0.154685 -0.727662
-0.0593922  -0.683361  -0.727661
-0.353619  -0.58776 -0.727662
-0.140715 -0.433076 -0.890306
0.0927642 0.0673972  0.993404
 0.0927642 -0.0673972   0.993404
    0.213262 -1.15757e-18     0.976995
  0.332317 -0.0772106   0.940002
 0.316216 -0.229745  0.920448
 0.447504 -0.156604  0.880463
 0.332317 0.0772106  0.940002
0.447504 0.156604 0.880463
0.316216 0.229745 0.920448
0.552956 -0.23322 0.799905
 0.524626 -0.381163  0.761237
 0.644597 -0.304096  0.701442
 0.718218 -0.366871  0.591243
 0.677349 -0.492123  0.546822
 0.770113 -0.424725  0.475956
 0.750869 -0.226885  0.620257
 0.840843 -0.151418  0.519669
  0.768504 -0.0766153   0.635241
 0.768504 0.0766153  0.635241
0.840843 0.151418 0.519669
0.750869 0.226885 0.620257
0.718218 0.366871 0.591243
0.770113 0.424725 0.475956
0.677349 0.492123 0.546822
0.644597 0.304096 0.701442
0.524626 0.381163 0.761237
0.552956  0.23322 0.799905
  0.568536 -0.0785208   0.818903
    0.676611 -3.14604e-18     0.736341
 0.568536 0.0785208  0.818903
0.641916 0.601174 0.475955
0.570857 0.569697 0.591243
0.447812 0.644007 0.620257
0.403843 0.752898 0.519669
0.310346 0.707216 0.635241
0.488404 0.519078 0.701441
0.392679 0.453824 0.799904
0.164614 0.754567 0.635241
0.115827 0.846481 0.519668
0.0162503   0.78423  0.620257
-0.126975  0.796435  0.591244
-0.165959  0.863669  0.475955
-0.258724  0.796271  0.546822
-0.0900209   0.707019   0.701441
-0.200389  0.616735  0.761237
-0.0509326   0.597963   0.799904
-0.0106535   0.473995   0.880463
-0.120784  0.371735  0.920448
0.0292599  0.339911  0.940002
0.0659015  0.202824  0.976995
-0.035433  0.109051  0.993404
0.176123 0.292193 0.940002
0.287227 0.377208 0.880463
0.209084 0.643495 0.736341
0.101009 0.564974 0.818903
0.250364 0.516446 0.818903
-0.373387  0.796272  0.475956
-0.365409  0.718963  0.591243
-0.474106  0.624904  0.620257
-0.591255  0.616735  0.519668
-0.5767  0.5137 0.63524
-0.342747  0.624904  0.701441
-0.310268    0.5137  0.799904
-0.666767  0.389732  0.635241
-0.769258  0.371735  0.519668
-0.740826  0.257795  0.620257
-0.796692  0.125352  0.591244
-0.872682  0.109051  0.475955
  -0.837249 8.51128e-18    0.546821
-0.700234  0.132866  0.701441
  -0.648474 3.86034e-18    0.761237
-0.584435   0.13634  0.799904
-0.454088   0.13634  0.880463
  -0.390865 1.93018e-18    0.920448
-0.314234  0.132866  0.940002
-0.172533  0.125352  0.976995
   -0.114663 -2.68375e-18     0.993404
-0.223468  0.257796  0.940002
-0.269989  0.389732  0.880463
-0.547389  0.397703  0.736341
-0.50611 0.270652 0.818902
-0.413801  0.397703  0.818902
-0.872682 -0.109051  0.475955
-0.796692 -0.125352  0.591244
-0.740826 -0.257795  0.620257
-0.769258 -0.371735  0.519668
-0.666767 -0.389732  0.635241
-0.700234 -0.132866  0.701441
-0.584435  -0.13634  0.799904
-0.5767 -0.5137 0.63524
-0.591255 -0.616735  0.519668
-0.474106 -0.624904  0.620257
-0.365409 -0.718963  0.591243
-0.373387 -0.796272  0.475956
-0.258724 -0.796271  0.546822
-0.342747 -0.624904  0.701441
-0.200389 -0.616735  0.761237
-0.310268   -0.5137  0.799904
-0.269989 -0.389732  0.880463
-0.120784 -0.371735  0.920448
-0.223468 -0.257796  0.940002
-0.172533 -0.125352  0.976995
-0.035433 -0.109051  0.993404
-0.314234 -0.132866  0.940002
-0.454088  -0.13634  0.880463
-0.547389 -0.397703  0.736341
-0.413801 -0.397703  0.818902
 -0.50611 -0.270652  0.818902
-0.165959 -0.863669  0.475955
-0.126975 -0.796435  0.591244
0.0162503  -0.78423  0.620257
 0.115827 -0.846481  0.519668
 0.164614 -0.754567  0.635241
-0.0900209  -0.707019   0.701441
-0.0509326  -0.597963   0.799904
 0.310346 -0.707216  0.635241
 0.403843 -0.752898  0.519669
 0.447812 -0.644007  0.620257
 0.570857 -0.569697  0.591243
 0.641916 -0.601174  0.475955
 0.488404 -0.519078  0.701441
 0.392679 -0.453824  0.799904
 0.287227 -0.377208  0.880463
 0.176123 -0.292193  0.940002
0.0659015 -0.202824  0.976995
0.0292599 -0.339911  0.940002
-0.0106535  -0.473995   0.880463
 0.209084 -0.643495  0.736341
 0.250364 -0.516446  0.818903
 0.101009 -0.564974  0.818903
 0.792012 -0.492122  0.361293
 0.850021 -0.366871  0.377981
  0.91566 -0.304096  0.262853
 0.915491 -0.381163  0.128804
0.962746 -0.23322 0.136851
 0.890574 -0.226885   0.39421
  0.911862 -0.0766153   0.403284
   0.98764  -0.156604 0.00650545
  0.96469 -0.229745 -0.128804
   0.98938 -0.0772107  -0.123148
    0.969225 -1.15756e-18    -0.246179
  0.930013 -0.0673972  -0.361293
 0.930013 0.0673972 -0.361293
  0.98938 0.0772107 -0.123148
  0.96469  0.229745 -0.128804
   0.98764   0.156604 0.00650545
0.962746  0.23322 0.136851
0.915491 0.381163 0.128804
 0.91566 0.304096 0.262853
0.850021 0.366871 0.377981
0.792012 0.492122 0.361293
0.890574 0.226885  0.39421
 0.911862 0.0766153  0.403284
  0.986706 -0.0785208    0.14229
 0.986706 0.0785208   0.14229
    0.961193 -3.14604e-18     0.275878
 0.872682  0.109051 -0.475955
 0.903323  0.202824 -0.377981
0.853849 0.339911 -0.39421
 0.769258  0.371735 -0.519668
 0.782745  0.473995 -0.403284
 0.919528  0.292193 -0.262853
 0.915961  0.377209 -0.136851
[...]
POINT_DATA 10242
SCALARS Field double
LOOKUP_TABLE default
2.35787
1.41348
1.27633
-1.30417
-1.70442
-1.04993
-1.07834
-1.41125
-1.22845
0.654082
1.18935
-0.259555
1.94063
-0.807865
-0.995451
-1.35705
-1.00809
0.52941
-0.832164
-1.50351
0.141709
-1.64614
-0.31235
-1.18684
-1.63686
1.42042
1.83059
-1.5503
1.30086
0.0109397
-1.07315
0.464961
-1.33422
1.8524
-0.470783
0.235362
1.55142
0.912663
-1.75179
0.634921
0.687544
1.93875
-1.73983
-1.35903
1.71184
0.259328
1.75575
-1.83243
-1.0166
0.84704
-2.477
1.78591
1.40667
1.10948
-0.477715
-1.54169
-1.05907
0.250493
-0.416824
1.59243
-1.63046
-0.392648
1.79387
1.4588
-1.20792
-1.78731
0.817479
-0.218805
-1.43821
1.71448
1.3387
-1.89115
-1.72722
0.272323
0.693159
-1.84887
1.29412
1.21381
1.78124
-1.63025
-0.205354
1.67713
1.37346
-0.97228
-1.62476
1.23233
-0.29945
-0.979128
0.579063
1.07329
-1.80567
0.877749
-1.72458
-0.184719
1.33143
-0.387456
1.11118
-0.606895
-0.118928
1.75456
0.629129
-1.74448
-1.73244
-1.2919
-0.67705
-1.81879
1.84639
1.84643
1.74857
1.75275
-1.52047
1.65271
-1.20749
-0.739615
0.918705
-0.097515
-0.609982
1.84988
1.83581
1.42284
1.02969
-0.235987
-1.00896
1.78882
-1.03428
-0.882306
1.63776
-1.30775
-0.212835
1.48535
1.00366
1.66924
1.78609
-1.68132
-1.50892
1.75946
0.372337
-1.25323
0.542804
-0.583286
1.86726
1.65322
1.13175
0.497182
-1.764
-0.279823
-1.31976
2.00072
-1.03331
0.744688
0.689712
1.42911
-1.16565
-1.80862
-0.817402
-1.81678
1.22187
-1.27014
-1.16598
-1.13053
-1.88955
0.0323832
1.3062
0.168857
-1.78385
0.472491
1.64324
1.04078
-0.30148
1.7833
-0.513755
-1.77573
-0.738429
1.33795
0.168899
-1.26961
-1.69913
1.33624
-1.40817
1.77304
1.69469
-0.371272
1.95948
1.15334
1.33759
0.013241
-1.19534
-0.522939
-0.653625
-1.49585
-0.738381
-1.20723
1.67063
-1.00961
1.47554
-0.461079
-0.827337
-0.186089
1.92988
-0.590626
1.72091
1.7301
-1.47864
-1.41211
-0.137895
0.24834
-1.81553
1.50652
1.94213
-0.241602
1.56741
1.2124
1.8866
-1.55203
-0.66996
-1.77341
-0.366266
-1.17675
1.69292
1.73095
0.835353
-1.79779
-1.66899
0.749905
-0.47067
-0.59807
1.75497
1.75093
1.06575
-1.84286
-1.13077
0.736905
-0.728976
-1.81841
1.50891
1.70508
-0.0817309
-1.66053
0.204061
-1.98077
-1.17268
-1.0291
0.20891
1.83491
-1.56225
-0.186907
0.754307
-1.7662
1.42239
1.60225
-1.64384
1.70896
-1.29112
1.72648
1.23569
-1.7772
-0.276114
0.521524
-1.49984
-1.76723
1.48435
1.37378
0.337671
-1.65974
0.011368
0.894443
0.504052
0.0242638
-1.52308
-1.71774
-1.80795
0.860848
1.38647
-1.63263
1.54981
0.886629
-1.76293
1.4271
-1.77609
0.95457
0.00795491
-1.61804
1.52032
-1.73614
0.720386
0.900826
-1.55332
0.481197
1.16636
0.191392
-1.74738
-1.67007
1.26552
0.677533
1.54391
-1.63865
-1.35765
-0.0616374
-0.667049
-0.945197
1.85387
1.70361
0.927756
-1.84771
-1.3749
0.913306
-0.34623
-1.84187
1.32352
1.78572
0.188659
-1.55155
-0.757989
-1.88205
-1.39868
-0.809707
0.207135
1.87601
-1.27849
-0.652816
0.268987
-1.81888
1.15056
1.77743
-1.41116
1.66731
-1.22095
1.82847
1.78736
-1.12178
1.30074
-0.294501
-1.79054
-1.51281
1.56498
0.34276
0.530807
-1.61267
0.337157
1.35166
0.0233263
0.357988
-1.62773
-1.80149
-0.412012
1.74273
0.729923
1.69942
-0.561493
-1.43893
0.0863051
-1.36286
1.58174
-1.64417
-1.6768
1.23606
-0.000481183
1.62416
-1.24931
-1.0117
0.683393
-1.83119
1.31994
-0.946866
1.78209
1.55632
-1.47278
-1.81955
0.335148
1.29809
1.75384
-1.64942
-0.972916
-0.929016
-0.736762
-1.44524
1.23949
0.737778
1.36628
-1.80732
-1.8183
0.677734
1.03349
0.368443
-1.85497
0.894029
1.20979
0.465608
-0.178739
1.83707
1.56203
-1.33998
-1.37197
1.59547
1.7871
-0.872433
1.81244
0.0383342
-1.55811
1.36602
1.254
0.213533
-1.29998
0.511275
-1.55763
1.01966
1.43223
-1.2758
-1.34214
-0.421718
1.72719
-1.40358
-0.0131437
-0.960975
-1.15289
-0.718949
1.7973
-0.534785
-0.712959
-0.842224
-1.37638
-1.5221
1.81793
-0.0657244
-0.335932
1.403
-1.23661
-1.57088
1.4556
1.3501
0.368961
-1.79283
-1.73787
1.40462
1.25558
-0.879405
-1.84067
0.186548
1.79614
1.23127
-1.70488
-0.608057
1.81333
1.77574
-1.12187
1.72915
0.0195385
-0.795358
-0.777019
1.87937
-0.46225
0.110632
-0.712201
-0.483253
0.0665284
0.691759
1.15321
1.047
-1.73365
-1.10744
1.72307
-1.50043
0.915445
-1.88792
-1.71134
1.48056
-1.28587
0.0528461
1.76493
-1.04316
1.81888
-0.952773
-1.03949
1.65461
-1.23597
-1.04681
1.81148
1.84503
-0.60353
-1.40938
-1.25437
1.70888
0.370288
-0.997375
-1.21196
-0.737082
1.83073
1.78917
-1.11551
-1.09352
1.73994
1.63349
-0.00638514
1.78215
-0.365833
-1.72426
-1.79303
1.26415
0.980532
1.32828
0.529606
0.166969
-0.0208621
0.00629547
0.201621
1.66322
-1.46203
-1.61786
1.61231
-1.51589
1.73976
-0.586203
-0.0743366
1.60338
0.128495
-1.55401
1.49987
-0.0381878
1.74842
-0.613261
-1.47653
0.598856
-1.09312
1.69192
0.122603
-1.78642
0.94604
-1.81973
0.403706
-1.6686
1.5237
1.44887
-1.42281
-2.09019
-0.513638
1.82445
1.48841
-1.40428
1.66314
0.347921
1.08244
-0.353248
0.122996
1.79269
-1.2362
-1.21985
-1.03799
-0.439224
0.395014
1.10669
1.48386
1.49221
0.579953
-1.75804
-1.76833
-1.04902
1.66406
-1.60878
1.15974
-0.379663
-1.20607
0.838167
1.75996
-1.30511
-1.55582
-1.02529
-1.37832
-0.722728
0.523173
1.97887
-1.71792
1.00836
0.709567
-1.80809
1.30065
-0.558301
-1.4366
1.53935
1.86712
-0.0804425
-0.0292723
-1.73962
-1.76798
0.863581
-1.88935
0.79097
1.1831
-1.76605
0.0304461
-1.4317
-0.48423
-1.82079
1.78266
0.0889429
-1.83502
0.735601
1.49016
0.384455
-1.76709
0.990396
0.778754
1.10281
1.58854
1.59147
-1.47063
-1.16668
0.0410073
1.30559
0.956388
1.58975
-0.744544
-2.23857
-0.912205
1.7021
-0.279002
1.3483
-1.67824
0.65015
0.950384
1.81793
1.39904
0.69183
-0.101331
-1.74747
-0.00147024
-0.643128
-0.595171
-1.5412
1.6201
-0.214681
0.640168
1.70108
-1.44212
0.459833
1.21174
-1.93968
0.758299
-1.56724
-0.446718
-1.3562
1.37822
1.78601
2.33127
1.76165
0.968414
-0.890348
-1.35192
-1.74713
-0.525879
-1.75149
-0.392881
-0.739064
0.240135
1.11505
1.67222
1.1145
0.213897
1.76641
1.52471
1.61375
1.41387
1.74782
1.2675
1.19486
1.8646
1.17134
-0.444981
-1.80347
-1.75066
-1.34606
-0.0114712
-1.63058
-1.55704
-1.83136
-1.51429
0.291264
1.20152
1.72791
-0.541348
0.808473
-1.12319
1.22994
0.440017
-0.560703
-1.7609
-1.78076
-1.40338
-1.50526
-1.8515
-1.08684
-0.569227
-1.66072
-0.0359285
0.392747
-1.17395
0.656306
1.66449
1.54918
1.78166
1.67216
0.820518
1.83236
0.840386
-0.779123
1.11232
1.53075
0.239168
1.9252
1.81424
0.734185
0.717034
2.00488
1.22658
1.68622
1.29279
1.34544
1.2411
0.332658
-1.59894
-0.982785
-1.8395
-2.07215
-1.69726
-0.47565
1.22288
1.10401
-1.54107
-1.69452
-0.95555
1.79607
-0.0190459
0.597747
-0.908755
-1.68786
-1.5
-0.241569
0.218598
-0.273387
1.19111
1.72558
0.858844
-1.00915
-1.89866
-0.963939
0.874703
0.651962
0.469858
-1.77129
-1.93037
-1.3474
1.59955
0.643475
0.410672
1.79601
0.914181
-1.12772
-2.36783
1.50673
1.06249
1.05158
-0.531842
-1.68312
-1.71195
0.936029
0.477881
1.66398
1.61372
1.80551
1.35306
1.24383
1.96465
-0.572944
-2.13689
0.340378
0.743212
-1.29345
-1.10392
0.357449
0.762168
1.81816
1.2897
0.905088
1.29762
1.73192
0.196936
-0.954874
-1.75777
-1.81425
-0.967662
0.0642286
0.683394
-1.62048
-0.94718
-1.7876
-1.52685
-1.83571
-0.982804
-0.306037
-1.50338
0.389787
0.996333
1.7155
1.72052
0.243842
-0.667961
1.24006
0.987432
-0.531556
1.34022
1.41201
-0.0832618
1.39414
1.84933
0.492974
0.863509
1.55859
0.980204
1.96986
2.35765
2.45534
1.30417
-0.364827
-1.6952
-1.80748
-0.573448
1.13303
-1.78575
-1.78462
-1.31505
1.28717
-0.237097
0.0812924
-1.71665
-1.52598
-0.869658
-1.34541
-0.499768
0.295225
1.46056
1.81771
1.16649
-0.784095
-1.81185
-0.86231
1.01854
0.767319
0.277432
-1.53814
-1.79033
-1.54759
1.74198
1.46857
1.83703
0.891285
1.40728
0.92405
0.195435
0.221058
-1.55237
-1.13266
-1.81005
-0.934506
-1.34896
-0.610095
-0.074029
1.30588
1.69387
1.38184
0.0842648
-1.66121
-1.78
-1.2485
-0.584802
1.76005
1.85383
1.34844
-0.018714
1.64602
1.32082
1.87383
0.883206
1.44216
0.820883
0.163968
-1.16468
0.374918
-1.40985
-0.772134
-1.56224
-1.71971
-1.82787
-0.0605539
0.589967
1.55534
1.64336
1.18258
-0.00971473
-1.66215
-1.81293
-1.44001
-1.21886
-1.87907
-0.563585
1.79531
1.86368
1.35919
0.423772
1.08619
1.77222
1.08311
0.399604
-0.799899
1.65995
0.779869
1.93641
-1.71246
-1.27634
-0.704849
1.21983
1.79435
0.0927441
-0.975737
-1.52896
-1.63622
-1.62497
-1.70088
-1.56433
0.194449
-0.523422
-1.7711
-2.11454
-1.29628
-1.65668
-1.84299
-1.85837
-1.4113
0.437703
-1.62376
-1.10368
-0.366821
0.938692
1.83459
1.78465
0.685898
-0.85435
1.0395
1.75217
-0.485934
1.44706
0.94488
-1.41748
-1.77611
-1.64482
-1.69246
-1.43069
-0.676483
1.10943
-1.13053
-1.81845
-0.772182
-0.395442
-1.65062
-0.041655
1.13979
1.75402
1.8062
1.24926
-0.644053
-0.0627181
-1.29534
-1.67413
0.577194
1.80008
0.30247
1.72504
1.4894
0.237313
-1.36482
0.404731
0.431722
-1.31708
0.280078
1.75203
1.48027
1.42252
-0.0585156
-1.6192
-0.552136
-1.11225
-1.8131
-1.6021
0.605235
1.3694
1.80358
1.18155
0.269913
-0.733216
-1.84814
-1.58153
-0.907152
-1.35941
-1.62206
0.0150169
1.58667
1.81508
1.64465
1.06779
1.71011
1.87293
0.691017
-0.482828
-1.19124
1.72044
1.61949
1.52013
-1.93576
-1.58243
-1.08371
0.516475
1.59865
-0.943211
-1.42163
-0.252547
1.37167
1.50635
-0.137147
1.66685
1.00164
1.64898
-1.22147
-0.824693
0.467715
1.60303
1.49091
-0.195212
1.62709
0.384359
-1.66424
-1.5893
-0.282683
0.00106083
-0.0696114
-0.393451
-0.851007
-1.31798
-1.76576
-1.09775
-1.58306
-1.59725
-1.40211
-1.78282
-1.25884
-0.91601
-1.77786
-0.609764
0.381193
1.71484
-0.356019
-1.67598
-0.17352
-0.0788142
-1.62029
-0.0762496
1.50658
1.65996
1.71377
0.519055
-1.28323
-0.993289
-1.76009
-1.05006
-0.494697
1.32404
1.1839
1.77589
1.8012
-0.176156
-1.7016
-0.371304
-0.641498
-1.83786
-0.963342
1.24364
1.83198
1.76441
-1.29176
-1.78384
-1.5796
-1.76989
-1.35273
-0.627313
1.1881
1.79327
0.441921
-1.42159
-1.62882
-0.281145
-0.837783
1.10605
0.546806
1.62775
1.81425
0.0433075
1.60928
1.29122
-0.399467
1.77093
1.73734
1.12928
-1.47526
-0.895711
0.566879
-0.99087
-1.81033
-1.0559
0.744119
1.76108
0.839965
1.65561
1.2917
1.65281
-0.787398
-1.04781
0.59446
1.52237
1.6904
0.374455
1.65104
0.160131
-1.20434
-1.79781
-1.17979
-0.729415
-0.42203
-0.303104
-0.365018
-0.609308
-1.70269
-1.43448
-1.40437
-1.68905
-1.47384
0.00120126
-0.349416
1.02175
1.85105
1.82442
-0.778633
-1.17363
1.38976
-0.338418
-0.0966016
-1.51698
-1.62799
-1.73456
0.164606
0.453515
1.67086
1.40318
1.21015
-0.370471
-1.71656
-1.79996
-1.62909
-1.46523
1.72751
1.57576
0.296321
-0.603169
1.24804
0.978721
1.84302
1.17354
1.52213
0.599421
0.102537
-1.30775
0.371194
-1.38132
-0.885579
-1.66829
-1.62669
-1.79057
-0.319682
0.236025
1.37895
1.75233
1.45037
0.30327
-1.49164
-1.76141
-1.61826
-1.03281
-1.83401
-0.469451
1.77289
1.85913
1.3949
0.0801565
0.735962
1.6677
1.3558
0.83087
-0.44005
1.71933
0.833577
1.86634
-1.68468
-1.67336
-1.18468
0.329353
0.69432
-0.0649233
-0.565971
-1.13994
-1.62042
-1.86
-1.87989
-1.72984
0.0213321
-0.584423
-1.49999
-1.81051
-1.12388
-1.82851
-1.87463
-1.81827
-1.13636
0.787051
-1.59622
-1.17884
-0.594852
0.802429
1.78654
1.72548
0.554327
-1.01064
0.946086
1.86831
-0.353884
1.52026
1.15783
-1.14553
-1.81354
-1.7813
-1.44607
-1.68021
-1.04727
0.732002
-1.4802
-1.76555
-1.18296
-0.802842
-1.77457
-0.374021
0.742551
1.81765
1.73763
1.57265
-0.156123
0.434793
-0.943373
-1.80183
0.991352
1.81406
-0.206726
1.51356
1.16423
0.038968
-1.43143
0.386055
0.634586
-1.05956
0.749435
1.78042
1.33843
1.45674
0.722105
-1.00559
0.553812
0.236235
-1.27169
-0.253389
1.63238
1.79102
1.61342
0.0354346
-1.26023
-1.60683
-1.62409
-0.407428
-0.0115344
-1.73129
-1.7298
-0.402438
1.83829
1.41757
1.31766
1.59115
1.7537
1.66747
0.291047
-1.34598
-1.2162
1.67507
1.73989
1.39378
-1.73367
-0.940515
-1.21566
-0.232285
1.16904
-1.4983
-1.37067
0.230952
1.66874
1.26716
-0.608684
1.61194
0.606376
1.75457
-0.865678
-0.358088
0.932085
1.45904
1.62712
-0.0277277
1.76988
0.803498
-1.6433
-1.52148
0.0991081
-0.0516922
-0.388997
-0.827946
-1.27476
-1.62535
-1.69752
-0.701456
-1.45302
-1.75477
-1.13985
-1.00378
0.6337
1.30396
0.255245
1.70516
1.77156
1.24035
1.82625
1.37458
1.69306
1.37252
1.84004
0.958181
0.0542114
-1.64713
-1.21695
-1.79273
-0.961746
-1.61459
-1.01994
0.938187
-1.81601
-0.599492
1.34352
-0.522835
0.359088
0.536914
1.7256
0.174794
-0.0979781
1.44395
-0.272613
-1.55083
-1.5966
-1.70905
-0.353654
1.26073
-0.343461
-0.223882
1.24213
-1.60148
-1.63922
-0.157196
1.47743
1.62782
0.185276
1.54102
1.50671
-0.00750034
-1.68446
-1.54854
-1.53432
-1.39452
-1.67347
-0.597429
0.820594
-1.69672
-1.69008
-0.928183
1.68557
1.88735
1.65347
0.735893
-0.870033
-1.86891
-1.17282
0.727975
1.84291
-0.578472
0.414984
-1.41396
0.0274977
-1.1433
-1.58959
-1.04014
-1.81364
-0.514714
-1.82236
-1.39135
1.34896
1.69869
0.261478
0.543569
0.960492
1.41954
1.75506
1.68689
1.00947
-0.185944
1.02408
1.77346
0.506836
-1.79788
-1.70348
-1.6883
-0.310375
-0.713888
-1.44718
-1.03686
0.769577
1.84019
1.77934
1.56375
-0.19817
0.225722
1.60663
1.3285
-0.143241
-1.73319
-1.84668
-1.3518
0.58951
1.02886
0.0590512
-0.50812
-1.13066
-1.48729
-1.81233
-1.27382
-1.77016
-1.84264
-1.12174
0.78752
0.338072
-1.82104
-1.70243
-0.53703
1.53495
1.66646
1.81237
1.14358
-0.419827
-0.0625847
1.82825
1.78584
0.928143
-0.889879
-1.17729
-1.85093
-0.906017
-0.565868
1.01455
-1.22313
0.295359
-1.49729
-0.1222
-0.541062
-1.67664
1.84544
1.77323
0.713272
-1.17177
-1.40927
-1.81954
-0.895716
-1.83214
-0.572342
-0.680206
-0.418637
1.05512
1.82358
1.80524
1.83253
1.82717
1.7878
1.70964
1.57387
1.35364
0.168709
-1.57528
-1.37287
-0.915628
0.702579
-1.14877
0.645524
1.02988
1.35525
1.84572
0.97599
1.60421
1.76922
1.84748
1.32068
-0.20906
-1.58191
-1.73889
-0.566865
-1.83877
-1.01398
1.7389
0.181171
0.584084
-1.31572
0.0501734
0.135769
-1.36603
0.266896
1.48911
1.71984
0.468885
-1.13632
0.742374
1.06071
-0.490833
1.39031
1.83943
0.91638
1.24267
-0.304452
-1.76664
-1.61473
-1.72178
-0.203075
-1.41653
0.342135
1.69908
1.46961
1.61877
1.67234
0.620271
1.82684
1.7554
1.73691
1.35304
0.883594
-1.11013
-0.55881
0.596839
1.42122
-0.359032
-1.22276
-0.546372
-1.77147
-1.79996
-1.07635
0.230554
1.44946
1.80637
-0.406754
-0.95837
-1.79711
-0.569673
-1.84272
-1.57558
1.02402
-0.432778
-1.61041
-1.79412
0.111768
0.63236
1.71331
-0.95748
0.361751
1.43374
-0.0805542
-1.58676
-1.61286
-0.00858027
1.6286
1.53932
1.39959
1.84117
1.06984
-1.85221
-1.77147
-0.856242
1.66483
-0.00358939
-1.67276
0.497528
-1.05521
-1.3873
0.517483
1.80908
1.66289
1.38629
1.01474
0.599866
0.187006
-1.3082
-1.84934
-1.67668
-0.521396
-1.82732
-1.79732
-1.79444
-0.866857
0.52815
0.865303
-1.78003
-1.78865
1.80218
1.24539
1.01853
-0.728645
-1.69669
-1.70235
0.95505
1.07958
1.78007
0.80575
0.47703
-1.07224
-1.78865
-1.64995
-1.81927
-1.80772
0.995648
0.971331
-0.71384
-1.11772
0.618117
0.284516
1.31174
1.96431
1.54586
-0.686507
-1.66671
-1.88286
1.27728
1.47264
0.822739
0.283362
1.14657
-0.263622
-0.812084
-1.69574
-1.59657
-1.42326
0.134433
-0.149987
1.34247
1.66465
1.7127
-0.291885
-0.173025
-1.64617
0.000217602
-1.46752
-1.45995
0.51465
-1.18725
-1.21358
-1.79748
-0.78999
-0.668366
-1.39676
-1.68351
-0.0455875
1.08183
1.81855
1.83651
1.04919
-0.17951
1.77517
1.75475
1.09573
0.141735
-0.73026
-1.32446
-1.62742
-1.49668
-1.86757
-0.325999
0.294508
-1.4907
-1.72584
-1.59171
-0.940734
-0.441922
1.38401
0.310708
1.53182
1.72615
1.62903
1.24522
0.408309
-0.763409
-1.68476
-0.0483664
1.62868
1.09188
1.82739
1.74373
-0.590061
-1.52796
-1.63447
-1.57538
-0.31935
-1.69722
-0.921023
1.35576
1.51981
1.79954
0.523835
0.405908
-1.27183
0.723327
-0.896128
0.969683
1.21587
-0.290595
1.4254
1.57613
0.283284
1.60521
0.473329
1.12058
1.79641
0.817437
-1.85789
-1.85817
-0.745423
1.01504
0.925175
1.87103
1.0244
1.86981
0.940242
1.26377
1.40944
-0.1892
-1.41185
-1.13592
-1.64265
-1.77788
-1.82622
-1.8247
-1.79339
-1.72247
-0.650155
1.18797
1.08607
1.13195
-0.645815
1.06555
-1.60398
-1.4264
-1.18334
-0.900382
0.387458
1.76129
1.65943
-0.6114
-0.353739
-0.1817
1.25809
1.81051
0.92601
-0.753089
-1.77387
-1.27837
-0.598161
-0.362207
1.22582
0.958347
1.8129
1.80808
-1.85846
-0.922206
0.768789
-1.84842
-1.8072
1.80588
1.3456
-0.237189
1.5149
1.59612
-0.0747708
-1.64424
-1.43088
-1.59349
-1.72362
0.527936
0.235758
-1.31397
0.810543
-0.709348
-0.769299
0.958564
-0.739238
-1.82261
-1.54883
-0.544851
1.21187
-0.188519
0.223513
1.72575
0.550613
-1.49609
-1.67221
-1.60136
-0.0378793
1.49126
1.59132
1.76337
0.384311
1.60182
0.029975
-1.85715
-1.55965
-1.54282
0.737365
1.85826
0.814004
0.827997
1.79592
0.798879
-0.984454
-1.86639
-1.87219
0.705557
1.75902
0.535233
0.310527
1.45005
0.117759
-1.14312
-1.83096
-1.82772
-1.0399
0.675955
0.705155
1.83041
1.28276
1.25136
0.735924
0.778968
-1.04215
-0.970298
-1.82707
-1.84268
-0.52355
-1.77544
-1.78299
-1.34906
0.251173
0.323616
-1.79291
-1.80949
-0.723453
1.65827
1.61531
1.58502
0.317702
-1.0359
1.51971
1.77645
0.778104
-0.869906
-1.85535
-1.31051
-1.84566
-1.0579
-1.82911
0.441778
0.602851
-1.13362
-1.1337
-1.8391
-0.914899
-1.76343
-0.492943
0.848329
1.84461
1.19953
1.10593
0.961678
0.783099
0.602319
0.457022
1.77374
1.32286
0.962036
1.81024
1.12891
0.1883
-1.24096
-1.8391
-1.83079
-1.18325
-1.83488
-1.04701
0.393636
0.245165
1.69461
1.59491
1.65186
0.113826
1.53311
-0.115536
1.47086
1.41104
-0.295986
1.35639
1.31366
-0.42351
1.79562
0.64088
0.512931
1.76704
0.593277
-1.4714
-1.39367
-1.763
-0.535712
-0.655398
1.12665
-0.394659
1.3861
-0.252138
1.83979
1.82482
1.1825
-0.210822
0.0439957
-0.538064
-0.851419
-1.11274
-1.30906
-1.44955
-1.53891
0.33057
1.70201
1.76374
1.83639
0.755446
1.81063
-1.58955
-1.60668
-1.58264
-1.52228
-0.0327939
1.57073
1.57205
-1.42575
-1.29327
-1.14663
0.303396
1.61656
1.64652
0.220217
-1.44172
-1.76249
0.209815
0.191961
1.67173
0.0944122
1.6005
1.58352
-1.54605
-1.67437
-0.121125
-1.60933
-1.65591
1.56052
1.64347
0.0449634
1.59815
1.64922
0.152617
-1.48219
-1.74387
-1.72022
-1.6906
-0.00495586
0.0883741
-1.56362
1.51339
0.527308
0.898523
1.81958
1.21052
-0.87561
-1.79314
1.43433
1.69661
1.56771
1.62662
1.5472
1.62804
0.0727683
-1.52288
-1.56698
-1.6361
-0.180586
-0.0709629
1.56371
1.70143
0.0797682
-1.43988
-0.304479
-1.64058
-1.7239
1.58023
1.62568
1.46988
1.25898
1.83891
0.881933
-0.269654
-1.72699
-1.6268
0.294221
1.3597
-0.440283
-1.1518
-0.331239
-1.78544
-1.71474
-0.710477
0.801673
1.78668
1.43486
0.46678
0.194646
-1.34904
-1.04325
-1.84384
-1.81965
-0.072551
-1.52802
-1.72739
-0.540153
-1.43732
-1.36101
0.271773
1.04912
1.83513
1.36636
1.81891
0.933496
-0.73169
-1.81169
-1.33132
0.337848
-1.30304
0.417966
-1.31351
-0.681955
-0.746336
-1.81533
0.0918875
-1.55137
-1.61006
-1.51649
-1.6913
-0.00917811
1.60061
1.56294
1.65366
1.7152
1.74682
1.75289
1.73719
1.45855
-0.234802
-0.147521
1.47102
-0.224021
-0.896835
-1.49858
-2.01426
-1.64683
-1.27669
0.0667709
-1.82574
-0.982767
-1.61959
1.68779
1.86734
1.69606
0.039213
-0.279631
-1.6433
0.453297
-1.03902
0.893085
1.26722
-0.094072
1.51728
1.63933
0.689956
1.67887
1.39514
-0.212804
0.276121
1.31606
1.81366
0.810054
-1.67826
-1.54146
-0.0746215
1.57152
1.63591
1.72327
1.4448
1.84649
1.22161
0.367876
0.302245
-1.23677
-1.83851
-1.81578
-1.85537
-1.87211
-1.87388
-1.85992
-1.80523
-1.67004
-0.785126
1.13604
0.858472
0.458947
-1.17892
0.623061
-1.44763
-1.14732
-0.788886
-0.425549
0.788825
1.80727
1.76686
-0.107535
0.130452
0.243581
0.15416
1.53533
1.72368
1.68218
0.44895
-1.18157
-1.17053
-1.75112
-0.727418
-0.859008
-1.02267
-0.763026
0.825233
1.34206
1.70919
1.77324
-1.79844
-0.689778
0.893545
-1.85964
-1.81553
1.81413
1.41485
-0.0341037
1.63724
1.42891
-0.401735
-1.73485
-1.11836
-1.41291
-1.6598
0.487053
0.0363464
-1.37512
1.80987
1.69479
0.366161
-0.577361
-1.36195
1.35695
0.928709
-1.65855
-1.0702
-0.108815
1.57035
1.75097
1.41925
0.691657
1.17168
-0.687264
-1.71479
-1.59333
-1.49071
0.0114109
-0.0386897
0.201287
0.520116
-1.73557
-1.80482
-0.946921
-0.32019
-1.12658
-1.49423
-0.711626
0.206014
1.09709
-1.66523
-1.94759
-1.43203
2.09459
2.59629
1.65138
0.345412
0.783087
-0.365756
-1.16779
-1.4464
-0.630643
0.884997
1.73237
-0.802046
-0.394288
-1.87567
0.422581
-1.00376
-1.44845
0.961555
-0.81917
-1.81475
-1.00191
-1.19041
-1.68373
0.00948163
0.793076
1.81773