# vtk DataFile Version 3.1
vtk output
ASCII
DATASET POLYDATA
POINTS 10242 FLOAT
-7.61101e-08 -2.82396e-18            1
0.723607 0.525731 0.447213
-0.276394  0.850651  0.447213
  -0.894427 5.46272e-18    0.447213
-0.276394 -0.850651  0.447213
 0.723607 -0.525731  0.447213
    0.894427 -4.35705e-18    -0.447213
 0.276394  0.850651 -0.447213
-0.723607  0.525731 -0.447213
-0.723607 -0.525731 -0.447213
 0.276394 -0.850651 -0.447213
7.61101e-08 3.92964e-18          -1
0.425325 0.309017 0.850651
 0.425325 -0.309017  0.850651
    0.850651 -8.96408e-09     0.525731
0.262865 0.809017 0.525731
-0.16246      0.5 0.850651
-0.688191       0.5  0.525731
  -0.525731 3.01954e-18    0.850651
-0.688191      -0.5  0.525731
-0.16246     -0.5 0.850651
 0.262865 -0.809017  0.525731
    0.951057    -0.309017 -7.95955e-19
   0.951057    0.309017 1.20782e-18
 0.688191       0.5 -0.525731
   0.587785    0.809017 7.95955e-19
1.99291e-17           1           0
-0.262865  0.809017 -0.525731
  -0.587785    0.809017 7.95955e-19
-0.951057  0.309017         0
  -0.850651 8.96408e-09   -0.525731
  -0.951057   -0.309017 7.95955e-19
-0.587785 -0.809017         0
-0.262865 -0.809017 -0.525731
-2.23446e-17           -1  7.95955e-19
 0.587785 -0.809017         0
 0.688191      -0.5 -0.525731
    0.525731 -5.22261e-18    -0.850651
  0.16246       0.5 -0.850651
  0.16246      -0.5 -0.850651
-0.425325  0.309017 -0.850651
-0.425325 -0.309017 -0.850651
0.202786 0.147333 0.968076
 0.202786 -0.147333  0.968076
    0.455363 -3.02204e-18     0.890306
 0.668267 -0.154685  0.727662
 0.609818 -0.443059  0.657131
 0.812604 -0.295727  0.502216
0.668267 0.154685 0.727662
0.812604 0.295727 0.502216
0.609818 0.443059 0.657131
 0.53236 0.681448 0.502216
0.353619  0.58776 0.727662
0.0593922  0.683361  0.727661
-0.0301442   0.864217   0.502216
-0.232931  0.716884  0.657131
0.140715 0.433076 0.890306
-0.0774574   0.238389   0.968076
-0.483587  0.716884  0.502216
-0.449719  0.517941  0.727661
-0.631561  0.267655  0.727662
-0.831234  0.238389  0.502216
  -0.753776 4.80946e-18    0.657131
-0.368396  0.267656  0.890306
   -0.250657 -9.61891e-19     0.968076
-0.831234 -0.238389  0.502216
-0.631561 -0.267655  0.727662
-0.449719 -0.517941  0.727661
-0.483587 -0.716884  0.502216
-0.232931 -0.716884  0.657131
-0.368396 -0.267656  0.890306
-0.0774574  -0.238389   0.968076
-0.0301442  -0.864217   0.502216
0.0593922 -0.683361  0.727661
0.353619 -0.58776 0.727662
  0.53236 -0.681448  0.502216
 0.140715 -0.433076  0.890306
 0.860475 -0.443058   0.25156
 0.949698 -0.154685  0.272297
    0.999958 -3.02203e-18   0.00913221
 0.956562 -0.147333  -0.25156
0.956562 0.147333 -0.25156
0.949698 0.154685 0.272297
0.860475 0.443058  0.25156
 0.831234  0.238389 -0.502216
 0.859244  0.433076 -0.272297
 0.677401  0.683362 -0.272297
 0.483587  0.716884 -0.502216
0.435715 0.864216 -0.25156
   0.808983    0.587761 -0.00913221
0.687276 0.681447  0.25156
0.155473 0.955273 -0.25156
  0.309003   0.951017 0.00913221
0.146359 0.951017 0.272297
-0.155473  0.955273   0.25156
0.440587 0.855417 0.272297
0.0301442  0.864217 -0.502216
-0.146359  0.951017 -0.272297
-0.440587  0.855417 -0.272297
 -0.53236  0.681448 -0.502216
-0.687276  0.681447  -0.25156
  -0.309003    0.951017 -0.00913221
-0.435715  0.864216   0.25156
-0.860475  0.443058  -0.25156
 -0.808983   0.587761 0.00913221
-0.859244  0.433076  0.272297
-0.956562  0.147333   0.25156
-0.677401  0.683362  0.272297
-0.812604  0.295727 -0.502216
-0.949698  0.154685 -0.272297
-0.949698 -0.154685 -0.272297
-0.812604 -0.295727 -0.502216
-0.860475 -0.443058  -0.25156
  -0.999958 3.32424e-18 -0.00913221
-0.956562 -0.147333   0.25156
-0.687276 -0.681447  -0.25156
 -0.808983  -0.587761 0.00913221
-0.677401 -0.683362  0.272297
-0.435715 -0.864216   0.25156
-0.859244 -0.433076  0.272297
 -0.53236 -0.681448 -0.502216
-0.440587 -0.855417 -0.272297
-0.146359 -0.951017 -0.272297
0.0301442 -0.864217 -0.502216
 0.155473 -0.955273  -0.25156
  -0.309003   -0.951017 -0.00913221
-0.155473 -0.955273   0.25156
 0.435715 -0.864216  -0.25156
  0.309003  -0.951017 0.00913221
 0.440587 -0.855417  0.272297
 0.687276 -0.681447   0.25156
 0.146359 -0.951017  0.272297
 0.483587 -0.716884 -0.502216
 0.677401 -0.683362 -0.272297
 0.859244 -0.433076 -0.272297
 0.831234 -0.238389 -0.502216
   0.808983   -0.587761 -0.00913221
    0.250657 -9.61891e-19    -0.968076
0.0774574  0.238389 -0.968076
 0.368396  0.267656 -0.890306
 0.449719  0.517941 -0.727661
 0.232931  0.716884 -0.657131
 0.631561  0.267655 -0.727662
    0.753776 -4.80946e-18    -0.657131
 0.232931 -0.716884 -0.657131
 0.449719 -0.517941 -0.727661
 0.368396 -0.267656 -0.890306
0.0774574 -0.238389 -0.968076
 0.631561 -0.267655 -0.727662
-0.202786  0.147333 -0.968076
-0.140715  0.433076 -0.890306
-0.353619   0.58776 -0.727662
-0.609818  0.443059 -0.657131
-0.0593922   0.683361  -0.727661
-0.202786 -0.147333 -0.968076
  -0.455363 3.32424e-18   -0.890306
-0.668267 -0.154685 -0.727662
-0.609818 -0.443059 -0.657131
-0.668267  0.154685 -0.727662
-0.0593922  -0.683361  -0.727661
-0.353619  -0.58776 -0.727662
-0.140715 -0.433076 -0.890306
0.0927642 0.0673972  0.993404
 0.0927642 -0.0673972   0.993404
    0.213262 -1.15757e-18     0.976995
  0.332317 -0.0772106   0.940002
 0.316216 -0.229745  0.920448
 0.447504 -0.156604  0.880463
 0.332317 0.0772106  0.940002
0.447504 0.156604 0.880463
0.316216 0.229745 0.920448
0.552956 -0.23322 0.799905
 0.524626 -0.381163  0.761237
 0.644597 -0.304096  0.701442
 0.718218 -0.366871  0.591243
 0.677349 -0.492123  0.546822
 0.770113 -0.424725  0.475956
 0.750869 -0.226885  0.620257
 0.840843 -0.151418  0.519669
  0.768504 -0.0766153   0.635241
 0.768504 0.0766153  0.635241
0.840843 0.151418 0.519669
0.750869 0.226885 0.620257
0.718218 0.366871 0.591243
0.770113 0.424725 0.475956
0.677349 0.492123 0.546822
0.644597 0.304096 0.701442
0.524626 0.381163 0.761237
0.552956  0.23322 0.799905
  0.568536 -0.0785208   0.818903
    0.676611 -3.14604e-18     0.736341
 0.568536 0.0785208  0.818903
0.641916 0.601174 0.475955
0.570857 0.569697 0.591243
0.447812 0.644007 0.620257
0.403843 0.752898 0.519669
0.310346 0.707216 0.635241
0.488404 0.519078 0.701441
0.392679 0.453824 0.799904
0.164614 0.754567 0.635241
0.115827 0.846481 0.519668
0.0162503   0.78423  0.620257
-0.126975  0.796435  0.591244
-0.165959  0.863669  0.475955
-0.258724  0.796271  0.546822
-0.0900209   0.707019   0.701441
-0.200389  0.616735  0.761237
-0.0509326   0.597963   0.799904
-0.0106535   0.473995   0.880463
-0.120784  0.371735  0.920448
0.0292599  0.339911  0.940002
0.0659015  0.202824  0.976995
-0.035433  0.109051  0.993404
0.176123 0.292193 0.940002
0.287227 0.377208 0.880463
0.209084 0.643495 0.736341
0.101009 0.564974 0.818903
0.250364 0.516446 0.818903
-0.373387  0.796272  0.475956
-0.365409  0.718963  0.591243
-0.474106  0.624904  0.620257
-0.591255  0.616735  0.519668
-0.5767  0.5137 0.63524
-0.342747  0.624904  0.701441
-0.310268    0.5137  0.799904
-0.666767  0.389732  0.635241
-0.769258  0.371735  0.519668
-0.740826  0.257795  0.620257
-0.796692  0.125352  0.591244
-0.872682  0.109051  0.475955
  -0.837249 8.51128e-18    0.546821
-0.700234  0.132866  0.701441
  -0.648474 3.86034e-18    0.761237
-0.584435   0.13634  0.799904
-0.454088   0.13634  0.880463
  -0.390865 1.93018e-18    0.920448
-0.314234  0.132866  0.940002
-0.172533  0.125352  0.976995
   -0.114663 -2.68375e-18     0.993404
-0.223468  0.257796  0.940002
-0.269989  0.389732  0.880463
-0.547389  0.397703  0.736341
-0.50611 0.270652 0.818902
-0.413801  0.397703  0.818902
-0.872682 -0.109051  0.475955
-0.796692 -0.125352  0.591244
-0.740826 -0.257795  0.620257
-0.769258 -0.371735  0.519668
-0.666767 -0.389732  0.635241
-0.700234 -0.132866  0.701441
-0.584435  -0.13634  0.799904
-0.5767 -0.5137 0.63524
-0.591255 -0.616735  0.519668
-0.474106 -0.624904  0.620257
-0.365409 -0.718963  0.591243
-0.373387 -0.796272  0.475956
-0.258724 -0.796271  0.546822
-0.342747 -0.624904  0.701441
-0.200389 -0.616735  0.761237
-0.310268   -0.5137  0.799904
-0.269989 -0.389732  0.880463
-0.120784 -0.371735  0.920448
-0.223468 -0.257796  0.940002
-0.172533 -0.125352  0.976995
-0.035433 -0.109051  0.993404
-0.314234 -0.132866  0.940002
-0.454088  -0.13634  0.880463
-0.547389 -0.397703  0.736341
-0.413801 -0.397703  0.818902
 -0.50611 -0.270652  0.818902
-0.165959 -0.863669  0.475955
-0.126975 -0.796435  0.591244
0.0162503  -0.78423  0.620257
 0.115827 -0.846481  0.519668
 0.164614 -0.754567  0.635241
-0.0900209  -0.707019   0.701441
-0.0509326  -0.597963   0.799904
 0.310346 -0.707216  0.635241
 0.403843 -0.752898  0.519669
 0.447812 -0.644007  0.620257
 0.570857 -0.569697  0.591243
 0.641916 -0.601174  0.475955
 0.488404 -0.519078  0.701441
 0.392679 -0.453824  0.799904
 0.287227 -0.377208  0.880463
 0.176123 -0.292193  0.940002
0.0659015 -0.202824  0.976995
0.0292599 -0.339911  0.940002
-0.0106535  -0.473995   0.880463
 0.209084 -0.643495  0.736341
 0.250364 -0.516446  0.818903
 0.101009 -0.564974  0.818903
 0.792012 -0.492122  0.361293
 0.850021 -0.366871  0.377981
  0.91566 -0.304096  0.262853
 0.915491 -0.381163  0.128804
0.962746 -0.23322 0.136851
 0.890574 -0.226885   0.39421
  0.911862 -0.0766153   0.403284
   0.98764  -0.156604 0.00650545
  0.96469 -0.229745 -0.128804
   0.98938 -0.0772107  -0.123148
    0.969225 -1.15756e-18    -0.246179
  0.930013 -0.0673972  -0.361293
 0.930013 0.0673972 -0.361293
  0.98938 0.0772107 -0.123148
  0.96469  0.229745 -0.128804
   0.98764   0.156604 0.00650545
0.962746  0.23322 0.136851
0.915491 0.381163 0.128804
 0.91566 0.304096 0.262853
0.850021 0.366871 0.377981
0.792012 0.492122 0.361293
0.890574 0.226885  0.39421
 0.911862 0.0766153  0.403284
  0.986706 -0.0785208    0.14229
 0.986706 0.0785208   0.14229
    0.961193 -3.14604e-18     0.275878
 0.872682  0.109051 -0.475955
 0.903323  0.202824 -0.377981
0.853849 0.339911 -0.39421
 0.769258  0.371735 -0.519668
 0.782745  0.473995 -0.403284
 0.919528  0.292193 -0.262853
 0.915961  0.377209 -0.136851
[...]
POINT_DATA 10242
SCALARS Field double
LOOKUP_TABLE default
0.00401109
-0.256616
0.188091
0.256169
-0.550231
0.279629
0.254533
-0.233662
0.454528
-0.480675
-0.0722578
0.0791802
0.541608
-0.480082
-0.312118
0.422722
-0.587137
-0.219648
0.502588
-0.449617
0.056027
0.465884
-0.587159
-0.00821537
0.35406
0.584848
-0.0143218
-0.360022
-0.582739
-0.35351
0.590702
0.18618
0.54603
-0.0486877
0.511809
-0.0649695
-0.410861
-0.560346
0.51975
0.594466
-0.295655
-0.295272
0.289169
-0.357251
0.607404
0.504985
-0.382309
0.387276
0.0952789
-0.453967
0.445733
-0.333647
-0.428312
0.0840389
0.493629
-0.510978
-0.476927
-0.542228
0.469974
0.536203
0.144768
-0.2472
0.583599
0.489333
0.343388
-0.538917
-0.359237
-0.556187
-0.428962
-0.107645
-0.15275
0.341684
-0.0872647
-0.356736
0.0859042
0.518234
-0.532835
0.0699772
-0.50463
-0.380468
0.0210708
0.45971
-0.587323
-0.462714
0.470483
0.578081
0.514049
-0.382894
-0.0858075
0.362185
-0.0242623
-0.470045
0.305309
0.551416
0.477066
0.545562
-0.463042
-0.575807
-0.557949
0.27142
-0.126234
-0.318118
0.14937
0.180857
-0.493114
-0.580161
-0.587091
-0.437592
0.568754
0.249166
0.495671
0.297073
0.574875
-0.196577
-0.561724
0.470899
0.479778
0.102685
0.117571
-0.193507
-0.0509233
0.472178
0.243043
-0.564525
-0.308954
0.584458
0.339983
-0.526273
0.189509
0.526006
0.422932
0.599855
-0.463365
-0.558905
-0.542353
0.34473
-0.328934
-0.401327
0.243905
-0.570641
-0.47652
0.436238
-0.0330694
-0.463438
0.561086
-0.0809248
0.454007
0.551092
0.441789
-0.490783
0.594067
0.469812
-0.153817
0.0587706
-0.0508816
-0.224217
0.0138585
-0.443186
0.437387
-0.561723
-0.388269
-0.456198
0.538308
0.149998
0.227702
-0.410331
0.469922
0.402512
-0.58728
0.548857
-0.496498
-0.409107
0.454854
0.440349
-0.503947
0.186956
0.564703
-0.462424
-0.0194595
-0.0913382
0.148509
-0.4382
0.196984
0.0787894
-0.391904
-0.238555
0.185093
-0.524451
-0.389951
-0.548284
0.220396
-0.392459
-0.567569
0.504016
0.403757
0.136448
-0.0600056
-0.426856
0.369972
-0.306115
0.512421
-0.302426
-0.0862098
0.381143
0.320367
-0.143948
0.575022
0.313052
-0.470038
0.554054
0.666594
-0.341505
-0.413013
0.262656
-0.311394
-0.0235602
0.174819
0.434674
0.553603
-0.427429
-0.525062
0.0792965
-0.168139
0.303909
-0.212152
0.0732042
-0.319893
0.0392517
-0.255885
-0.0151752
-0.573734
0.403209
-0.545844
-0.483963
0.553453
-0.438341
-0.636017
0.214119
0.516819
0.00250225
0.122036
0.242425
-0.336362
-0.520435
-0.187662
-0.0666647
0.449824
-0.574445
0.580194
0.228413
-0.323836
0.528968
-0.376306
0.533452
0.564229
-0.538634
0.310896
-0.51453
0.00156298
0.447228
-0.338211
-0.116588
0.0805709
0.258101
-0.837746
-0.43792
0.394019
-0.550045
0.476838
0.262144
-0.46432
0.568808
0.242974
0.271662
-0.124059
-0.592428
0.594607
-0.313822
0.529398
-0.336843
-0.191448
0.439942
-0.0254048
0.212433
-0.402247
0.528894
-0.325407
0.511822
-0.583901
-0.0421824
0.230351
0.456474
-0.522813
-0.261033
-0.260945
0.388738
0.560703
0.135397
0.423676
-0.538751
0.446089
0.200636
0.313999
-0.528877
-0.58456
-0.0443596
-0.231607
-0.189081
0.387174
0.243681
-0.536538
0.590763
0.580527
0.590542
0.554812
0.589534
0.510118
-0.596451
0.396681
-0.595219
-0.595343
0.467355
-0.566914
0.529242
-0.371034
-0.44739
0.0545655
-0.153456
0.266553
-0.559939
0.536014
0.266435
-0.386076
-0.561503
0.527682
-0.438522
-0.188312
-0.316451
0.523477
0.0573008
0.171507
0.594779
-0.579964
-0.493083
0.574289
-0.349348
0.0999527
0.255062
0.12918
-0.126179
0.488019
-0.33879
-0.237039
0.513975
-0.595311
-0.587404
-0.594634
-0.581636
-0.494976
-0.226406
0.20991
0.330579
-0.577845
-0.447523
0.586423
-0.554619
-0.385801
0.585245
0.590377
-0.460215
0.572389
-0.527608
0.369685
0.480161
-0.113165
0.254031
-0.0990217
0.558039
-0.402042
-0.389916
0.505719
0.594173
-0.483227
0.342485
0.101706
0.381726
-0.5696
-0.100652
-0.155261
-0.602816
0.571727
0.478798
-0.488972
0.0917399
0.203809
0.116616
-0.410808
0.345975
-0.573582
0.543674
0.524904
-0.586097
0.460707
0.393413
0.500128
0.47017
0.336249
0.0366846
-0.351575
-0.180846
0.523655
0.569726
-0.551047
0.586305
0.56108
-0.463216
-0.443199
0.567711
-0.487505
0.202076
0.0577531
-0.567991
0.546894
-0.595121
-0.457423
-0.148458
-0.197507
0.591634
-0.517189
-0.367047
-0.0277142
0.244002
0.41035
-0.590956
0.469755
0.493139
-0.296352
0.354402
-0.180328
-0.0316672
-0.104232
0.498355
-0.588139
-0.583847
0.526048
-0.580863
0.371792
-0.368495
-0.394702
0.125893
0.214052
0.292201
0.149147
0.188948
0.337881
0.525234
0.593902
-0.417975
0.0137885
-0.312682
-0.000185984
-0.189581
-0.283187
-0.206734
-0.28214
0.0430831
-0.253742
0.482095
-0.580659
-0.0977778
-0.309316
0.189436
0.486143
-0.487481
0.589304
-0.0265405
-0.170832
-0.38755
0.584015
-0.585938
-0.514514
0.172745
0.196764
-0.437915
0.562832
0.406395
-0.517557
-0.566985
0.569901
-0.474092
0.216657
0.312319
0.0461824
0.0537885
0.362559
-0.282015
-0.184856
0.473396
-0.580101
-0.569812
-0.588684
-0.597355
-0.55785
-0.407631
-0.113474
0.519474
-0.586531
-0.387607
0.582979
-0.503909
-0.311405
0.58509
0.587926
-0.495849
0.571954
-0.539279
0.380906
0.486456
-0.125373
0.220228
-0.215601
0.5719
-0.330714
0.578219
-0.493681
0.149091
0.314877
-0.0525275
-0.178303
-0.584187
0.558482
0.465213
-0.541836
0.236602
-0.283832
0.362733
-0.478345
-0.347225
0.648903
-0.538342
0.51941
0.368905
-0.503959
-0.411476
0.485919
-0.245694
0.448062
0.0356812
-0.209353
-0.233492
-0.0838642
0.251576
-0.175696
0.54319
0.374071
0.502972
-0.143666
0.316741
-0.41337
0.0204733
0.185124
-0.597336
-0.32589
0.279211
0.295303
0.457369
-0.551384
-0.661007
0.32074
0.373543
-0.164188
0.261276
-0.339093
0.409858
-0.499254
-0.417153
0.0480229
-0.157271
-0.440991
0.0278675
0.660126
0.272991
-0.461286
0.344891
0.509952
-0.542042
0.503939
-0.526356
0.250397
0.545672
-0.572742
-0.0636502
-0.389888
-0.030147
0.184661
0.225957
0.0947549
0.147168
-0.341653
-0.540466
0.188591
-0.366335
-0.711208
-0.371575
0.55843
0.223359
-0.579346
0.300214
-0.0150014
0.546491
0.358139
-0.489908
0.375031
0.552683
-0.141947
-0.46644
-0.555873
-0.54878
-0.446595
0.308234
-0.173453
0.108144
0.353204
-0.196412
0.304202
0.580202
0.391187
-0.153079
0.0492386
0.206844
0.247382
0.476405
-0.546436
0.565245
-0.566141
0.505895
-0.0530881
-0.156537
0.0418812
-0.448061
0.493256
0.520941
0.286586
0.0965764
0.70778
0.534065
-0.119898
-0.222222
0.85754
0.407412
0.591903
-0.539613
-0.00546172
0.0813112
0.523212
0.157261
-0.0477465
0.424208
0.595025
0.160133
-0.000484669
0.575039
-0.0429111
-0.0234563
0.53907
0.0489085
-0.540926
-0.289448
-0.292888
-0.597565
-0.603018
-0.39933
-0.538759
-0.262049
0.00705652
0.552814
0.353611
0.069241
0.369327
0.571931
0.0255832
-0.544702
-0.470426
-0.229566
0.446247
0.559272
0.463317
0.174809
0.532654
-0.136397
-0.387584
0.184695
-0.537963
-0.592225
-0.189344
-0.585192
-0.277346
0.50014
0.320376
-0.315032
-0.567457
0.0273267
-0.553477
-0.391978
-0.52018
-0.498272
-0.457177
-0.494817
0.193489
0.597017
0.601685
-0.508456
-0.433116
-0.534732
-0.562819
-0.328789
-0.565065
-0.0538627
0.438009
0.544551
0.300796
-0.275356
-0.427967
-0.448273
0.125977
0.263162
-0.506856
-0.54259
0.114586
0.161187
0.581738
0.592083
-0.386987
-0.574638
-0.268937
-0.0664916
0.188239
0.357422
0.580208
0.0542889
0.602323
0.130824
-0.550818
-0.369259
0.337355
0.359633
0.320112
-0.445252
-0.526392
-0.460669
-0.460144
-0.461617
-0.169153
-0.516865
0.170079
0.205168
0.55722
0.428239
-0.0917189
0.555216
0.565195
0.310961
0.5126
0.163111
-0.532179
-0.372246
-0.553396
0.0118997
-0.381748
-0.0988068
0.516703
-0.554916
-0.0165031
0.555516
-0.0607744
0.319256
0.451848
0.484086
0.41313
0.409356
0.514582
0.441366
-0.330662
-0.565471
-0.550603
0.493014
0.450941
0.547843
0.584293
0.287194
0.565776
0.0997918
-0.391612
-0.547827
-0.332517
0.210972
0.440491
0.4629
-0.0676207
-0.318308
0.558306
0.59479
0.00567591
-0.222723
-0.597328
-0.589465
-0.555619
-0.0793879
0.156768
0.623681
0.238005
0.0786619
0.320491
0.302322
-0.425012
-0.706597
-0.779437
-0.778082
-0.197701
-0.0208602
-0.0944805
0.248246
0.230553
-0.296346
-0.436995
0.193645
-0.388273
-0.522912
0.0091525
0.156423
0.355844
0.614741
-0.218116
-0.558877
0.0751676
-0.571377
-0.208267
0.593981
0.199557
-0.471823
-0.524924
-0.489338
-0.330451
0.00478274
0.400844
0.536117
0.341743
0.573748
0.266314
0.511249
0.40084
0.53232
0.308242
0.576755
0.000266508
-0.0917877
-0.584898
-0.282055
0.28379
-0.472965
-0.556285
-0.0962542
-0.566764
-0.358886
0.411289
0.186316
0.536766
0.209286
0.508955
0.243381
-0.488463
0.549939
-0.119838
-0.57301
-0.137738
-0.452925
-0.548929
-0.292735
-0.53385
-0.540438
-0.303272
-0.564272
0.0906992
0.571403
0.563702
-0.583256
-0.149349
-0.570714
-0.490209
0.129934
-0.30552
-0.441662
-0.0137468
0.293546
0.55471
0.198083
-0.148838
-0.593098
-0.302085
0.0466251
-0.388133
-0.492095
0.241546
-0.0818901
0.481327
0.557803
0.613266
0.392557
0.0579371
-0.658617
-0.499598
-0.309035
-0.158753
-0.0840738
0.491819
0.549833
0.84385
0.73797
0.270118
0.0310331
-0.00586523
-0.407052
-0.205578
0.423457
0.398917
-0.332518
0.494367
0.419262
0.232291
-0.234126
-0.296972
-0.399739
-0.0146293
0.551488
0.147372
0.518002
0.396761
-0.505146
-0.364661
0.295726
0.376346
0.298595
0.0777203
-0.249274
-0.51944
-0.489131
-0.122753
-0.464355
-0.417342
-0.35068
0.0539172
-0.536167
-0.592514
-0.401332
-0.505358
-0.376826
0.376675
-0.32927
-0.591201
-0.12023
0.0700667
-0.516632
0.212931
0.557918
0.232943
0.428975
-0.10294
-0.583384
-0.526372
-0.568085
0.144268
-0.244896
0.514788
0.234274
0.571333
0.575882
0.301564
-0.397313
0.339972
0.335709
-0.38976
0.287262
0.518983
-0.0949127
-0.115865
0.192846
-0.485294
0.0503755
-0.138847
-0.561849
-0.357487
0.497777
0.538186
0.364362
-0.384294
-0.573032
-0.453423
0.30439
0.576115
0.48917
-0.275927
-0.152288
-0.552911
0.56072
0.157447
-0.00316485
-0.239183
-0.583722
-0.521486
0.147836
0.633343
0.568554
-0.444016
-0.471088
-0.2979
0.114048
-0.554959
-0.377208
-0.26467
-0.396806
0.32727
0.52357
-0.0985079
-0.571397
-0.0272156
0.591924
-0.35775
0.0972325
-0.493788
0.350307
0.16002
-0.183979
0.557139
-0.0640037
-0.557218
0.0560378
-0.499206
-0.121319
0.487012
0.359818
0.321213
0.386984
0.497064
0.557743
0.45996
-0.00165732
-0.48013
-0.181833
0.414909
-0.317899
-0.554415
-0.0492973
0.24249
-0.292323
0.456621
0.545953
0.28198
0.572468
0.108621
0.600832
0.568388
0.390079
0.508416
0.0417749
-0.592785
-0.520715
-0.521278
0.25513
-0.0477215
0.41823
0.442882
-0.387743
-0.471264
0.441287
-0.347788
-0.0632995
0.445696
0.509206
0.397146
0.374315
0.531768
0.382927
-0.344272
-0.535852
-0.546354
0.419514
0.489578
0.475431
0.533404
0.365386
-0.0331068
-0.557173
-0.181187
0.495386
0.310568
-0.396168
0.546463
0.561568
0.063305
-0.289747
-0.561854
-0.544183
-0.411633
0.220129
0.47275
0.121775
0.207084
0.125583
-0.449994
-0.275544
-0.480118
-0.554864
-0.802502
-0.146352
0.616668
0.321992
-0.505611
-0.378501
-0.256951
-0.60267
-0.0307465
0.253472
0.402054
0.551309
-0.242041
-0.572322
0.0489925
-0.597243
-0.182507
0.569603
0.186549
-0.447244
-0.452859
-0.41722
-0.322468
-0.141788
0.136053
0.571707
0.447171
0.570017
0.328314
0.540578
-0.127641
0.0751168
-0.425029
-0.472596
-0.553256
0.298817
0.475064
-0.0954635
0.554594
0.488369
0.49083
-0.261161
-0.118158
0.384243
0.254989
-0.402151
-0.476812
-0.371526
0.301262
0.541592
0.470302
0.584571
0.57069
-0.583093
-0.553726
-0.0618813
-0.581124
-0.181501
-0.320814
0.330098
0.534745
0.581542
-0.434413
-0.516213
-0.468307
0.18649
-0.495462
-0.388781
-0.573639
-0.146424
-0.249765
-0.288725
-0.219262
0.401902
0.529049
0.486201
-0.145413
-0.599464
-0.590075
-0.0969978
-0.593504
-0.284817
-0.567435
0.587466
0.565709
0.0718079
0.562919
0.585899
0.31869
-0.430644
-0.477275
-0.504053
-0.376292
-0.564977
-0.310281
0.167577
0.213145
0.586144
0.253089
0.245996
0.24022
0.233719
0.242895
0.273418
0.324033
0.392486
0.580017
-0.0561461
0.0212796
0.126404
0.593297
0.080485
0.0317489
0.17334
0.296138
0.593066
0.117068
0.394966
0.470445
0.52556
0.451412
-0.230361
-0.59969
-0.149713
0.505517
-0.257166
-0.567726
0.558482
-0.132031
-0.0147054
0.329309
-0.254081
-0.23577
0.443353
-0.220519
-0.590269
-0.177676
-0.219287
0.48009
-0.239615
-0.28293
0.427973
-0.350145
-0.587451
0.0189401
-0.0519465
0.556106
0.330565
0.39148
-0.304834
-0.568461
0.441899
0.498842
-0.59763
-0.103608
-0.142346
-0.433723
0.2317
-0.516658
-0.572939
-0.163928
-0.5671
-0.325673
0.456191
0.339616
-0.469772
-0.536019
-0.282738
-0.0438985
-0.438135
0.171051
0.438256
0.45801
0.548084
0.0912797
-0.55637
-0.484964
-0.492489
0.258113
0.107427
-0.371865
-0.232947
0.412534
0.0552154
0.580242
0.544683
0.57532
0.187349
0.328246
-0.319247
-0.533249
-0.578687
0.440759
0.520364
0.452272
-0.190035
0.490915
0.384333
0.569008
0.141191
0.284312
-0.403659
-0.521184
0.157445
0.596816
0.080221
0.592872
0.26649
0.569121
-0.582504
-0.558889
-0.0586374
-0.523682
0.218044
0.572128
0.108893
0.592856
-0.0877855
-0.589147
-0.0485475
-0.192643
-0.314555
-0.410356
-0.481657
-0.533237
-0.434109
0.255804
0.0465674
-0.544061
0.161785
0.263509
0.567518
0.252809
0.191672
-0.422797
0.347733
-0.238006
-0.501172
-0.463159
0.185138
0.589751
0.580292
0.0544035
0.590106
0.212946
0.576946
0.543322
0.400416
0.481405
0.385828
0.553825
-0.258077
-0.581046
-0.53837
-0.00358616
-0.569454
-0.571147
-0.587791
-0.289244
0.446645
0.476901
0.498368
0.413145
0.531509
0.369596
-0.168276
-0.183883
-0.591982
-0.288745
-0.309747
-0.24253
-0.197302
-0.167294
-0.165897
-0.1964
-0.262371
-0.591126
-0.0599422
-0.114897
-0.159256
-0.596625
-0.144779
-0.357423
-0.462476
-0.548655
-0.574814
-0.389344
0.398087
0.262783
-0.50301
-0.327968
-0.0861449
0.403917
0.565828
0.159245
-0.439556
-0.529292
0.0297142
-0.307536
-0.15594
0.463427
-0.015848
0.574177
0.511346
-0.546189
-0.390991
0.312086
-0.507853
-0.451488
0.571429
0.0216148
-0.553786
0.13099
0.582529
-0.00571975
-0.583687
-0.125589
-0.261945
-0.371094
0.232454
0.12608
-0.504619
-0.313991
0.259983
0.235822
-0.435526
0.217647
0.579931
0.159385
0.216013
-0.47193
0.238989
0.284917
-0.424417
0.350221
0.586299
-0.00908354
0.0553529
-0.552194
-0.335961
-0.385712
0.314518
0.562942
-0.426295
-0.502208
0.589486
0.100998
0.132969
0.428503
-0.258566
0.507009
0.569233
0.0707653
0.594167
0.386805
-0.406253
-0.297023
0.556427
0.450998
0.44523
0.27689
0.553745
0.103014
-0.272451
-0.561948
-0.585457
-0.262282
0.473962
0.384677
0.563916
-0.102798
0.0282282
0.270254
0.143188
-0.490822
0.085538
-0.564789
-0.500683
-0.545498
-0.321936
-0.427121
0.222318
0.582753
0.593979
-0.506577
-0.55897
-0.404019
0.285126
-0.428388
-0.318265
-0.585784
-0.234203
-0.231662
0.441829
0.510446
-0.175857
-0.597692
-0.0824417
-0.598644
-0.234058
-0.587609
0.576255
0.544797
-0.00834711
0.539718
-0.188251
-0.593468
-0.0910127
-0.594269
0.0175276
0.595473
0.157404
0.27416
0.370837
0.444782
0.498708
0.536716
0.424017
-0.273877
-0.0969205
0.53027
-0.194958
0.0389597
-0.468981
-0.478212
-0.462267
0.150167
-0.517362
-0.00238369
0.582085
0.582264
0.154213
-0.518597
-0.535772
-0.378787
-0.492195
-0.449974
-0.454579
-0.399854
-0.53739
-0.322604
-0.222715
-0.591141
0.428515
0.532128
0.577492
0.268487
0.563278
0.359977
0.384215
0.533147
-0.117033
-0.130168
-0.587218
-0.102625
-0.582861
-0.0772414
-0.221676
-0.240067
0.425536
0.548982
0.565638
0.510377
0.46498
0.422317
0.40215
0.411795
0.448889
0.494011
-0.212192
-0.18249
-0.194701
0.487202
-0.178527
0.505454
0.55882
0.579299
0.536692
0.208309
-0.522319
-0.436979
0.407558
0.202472
-0.0349286
-0.496547
-0.529451
-0.0132517
0.532899
0.447055
-0.199058
0.446349
0.337031
-0.327358
-0.161665
-0.583034
-0.577458
0.329082
0.555335
-0.0340558
0.287523
0.228639
-0.572001
-0.268688
0.421576
-0.346468
-0.510072
0.223174
0.56885
-0.0714312
0.0482846
0.149324
0.0299984
0.117403
0.583663
0.518914
0.085401
0.153958
0.572485
0.214604
-0.479991
-0.467056
0.252474
0.565545
0.261951
0.242654
0.578436
0.189784
-0.457033
-0.45378
-0.473701
0.219668
0.581871
0.584046
0.0865875
-0.549806
0.583629
0.193544
-0.448665
-0.478027
-0.473795
0.102018
0.587112
-0.0197732
-0.167825
0.45231
-0.325108
-0.5964
-0.146088
-0.263799
-0.464989
0.0870746
-0.556357
-0.586535
-0.353132
-0.560159
-0.330765
0.387915
0.280681
0.597629
0.0908226
0.205737
-0.451508
-0.469926
-0.532164
0.317226
0.413057
0.554842
-0.549281
0.142075
-0.00657408
0.0778245
0.600111
0.585055
0.338038
-0.415572
-0.329062
0.553565
0.513429
-0.12062
-0.586647
-0.0732026
-0.175837
0.405033
0.554783
-0.229084
-0.589405
-0.151006
0.513372
0.408085
-0.327507
0.438339
-0.25485
0.474018
-0.249797
-0.188723
0.461413
-0.527147
-0.35428
0.425224
-0.416031
0.293442
0.485325
-0.273286
-0.573764
-0.594821
-0.598979
-0.590735
-0.577764
-0.564266
0.0201529
0.576586
0.533227
-0.0981412
0.562133
-0.545549
-0.113453
0.479384
0.482468
0.476901
0.451974
0.535848
-0.180219
-0.194071
-0.586408
-0.11087
-0.0887034
0.537294
-0.143489
0.508926
-0.18831
-0.246591
0.435558
-0.317903
-0.395139
0.286937
-0.558908
-0.0125297
-0.150241
-0.58868
-0.0946726
0.349086
0.331529
-0.38167
-0.520743
-0.514021
0.120139
-0.526157
0.121546
-0.534484
0.576811
0.571664
0.259084
-0.349157
-0.295031
-0.41452
-0.468032
-0.499238
-0.511735
-0.509
-0.485349
0.15426
0.584543
0.584248
0.578592
0.173654
0.581355
-0.43421
-0.344879
-0.210063
-0.0338368
0.435574
0.462367
0.530152
0.164298
0.348221
0.48687
0.550464
0.0692801
-0.505578
-0.495992
0.131449
0.594189
-0.555811
-0.588785
-0.308667
0.583956
0.221759
0.35811
0.370433
-0.347045
-0.549637
0.397753
0.434788
0.0637183
0.581447
0.251149
0.566829
-0.0872526
-0.596461
-0.096054
0.56741
0.526371
0.479903
-0.568222
-0.586086
-0.261902
-0.399352
-0.565908
-0.576935
-0.155524
-0.57486
-0.151454
0.468432
-0.561461
0.0163478
-0.553274
-0.556355
0.0211985
-0.567291
-0.281705
0.447022
0.432186
0.48095
-0.221574
-0.206305
-0.581831
-0.0683322
-0.200316
0.476346
-0.253736
0.433611
0.44735
-0.580019
-0.162308
-0.574446
-0.527713
-0.45799
-0.421513
0.0325592
0.58866
0.562469
-0.248534
-0.583904
-0.0318504
0.187037
-0.293175
0.35062
0.569005
0.305075
0.429735
-0.176124
-0.593354
-0.592111
-0.287003
0.471417
0.387416
-0.559935
-0.502229
0.118656
0.351143
0.527906
0.580781
0.558755
-0.110418
-0.00138925
-0.554856
-0.310621
-0.39224
0.0953106
0.174871
0.590378
0.245465
0.576349
0.578729
0.277233
-0.336063
0.57225
0.132102
-0.50421
-0.412299
0.310846
0.553175
0.27923
0.574228
0.23512
-0.449161
-0.484853
-0.473395
-0.194103
0.5207
0.339504
0.479067
0.449195
-0.431205
-0.464744
0.293244
0.199257
0.114844
0.0453784
-0.00684113
-0.0425972
-0.576034
-0.251541
-0.359186
-0.549895
-0.297203
0.401389
0.576192
0.117298
0.0857745
-0.509264
0.192428
-0.409973
-0.445262
-0.416023
0.271228
0.580532
0.564439
-0.0123819
0.593222
0.112964
0.599552
0.595464
0.274626
0.575965
0.535483
0.444451
-0.0535206
-0.567824
-0.482219
0.145171
-0.526169
-0.584291
-0.589323
-0.234606
0.478609
0.500564
0.450526
0.454148
0.498157
0.422077
-0.23365
-0.251086
-0.575732
-0.192245
-0.21006
-0.152295
-0.118428
-0.10329
-0.115606
-0.155582
-0.220784
-0.594893
-0.123787
-0.173651
-0.221284
-0.584135
-0.204056
-0.305987
-0.402394
-0.495838
-0.567844
-0.500784
0.261123
0.14452
-0.59423
-0.556535
-0.459524
0.0540413
0.54564
0.437486
-0.20561
-0.597975
-0.221843
-0.0860805
0.0354737
0.573878
-0.274428
0.475895
0.376157
-0.573495
-0.332123
0.379174
-0.55446
-0.523911
0.555428
-0.0533221
-0.587603
0.037307
0.60091
0.147789
-0.553124
-0.324562
-0.411331
-0.477632
0.321105
0.244085
-0.446491
-0.192523
0.368179
0.308429
-0.404566
0.249237
0.578018
0.0868532
0.204894
-0.492703
0.191082
0.212641
-0.470777
0.271875
0.582941
0.0331202
0.0781939
-0.546356
-0.330971
-0.366654
0.346335
0.544951
-0.392427
-0.534517
0.588721
0.0957756
0.0951933
0.363489
-0.299993
0.466994
0.551256
0.103416
0.575494
0.382028
-0.403533
-0.271057
0.501652
0.525528
0.324062
0.0807063
0.460092
-0.409614
-0.569525
-0.160997
0.440773
0.532515
-0.028922
0.30935
0.161111
-0.461639
0.00995195
-0.576948
-0.514894
-0.555688
-0.38151
0.269485
0.579996
-0.471434
-0.53141
-0.413748
0.21172
-0.375963
-0.559073
-0.296562
0.381456
0.525597
-0.125994
-0.589492
-0.117756
-0.583137
-0.248915
-0.566191
0.574014
0.55182
0.0389569
0.544503
-0.144368
-0.579
-0.0413825
-0.573462
0.01744
0.58414
0.119651
0.249706