# vtk DataFile Version 3.1
vtk output
ASCII
DATASET POLYDATA
POINTS 4260 FLOAT
2.83277e-16          -1    -3.14159
-0.104528 -0.994522  -3.14159
 0.104528 -0.994522  -3.14159
-0.207912 -0.978148  -3.14159
 0.207912 -0.978148  -3.14159
-0.309017 -0.951057  -3.14159
 0.309017 -0.951057  -3.14159
-0.406737 -0.913545  -3.14159
 0.406737 -0.913545  -3.14159
     -0.5 -0.866025  -3.14159
      0.5 -0.866025  -3.14159
-0.587785 -0.809017  -3.14159
 0.587785 -0.809017  -3.14159
-0.669131 -0.743145  -3.14159
 0.669131 -0.743145  -3.14159
-0.743145 -0.669131  -3.14159
 0.743145 -0.669131  -3.14159
-0.809017 -0.587785  -3.14159
 0.809017 -0.587785  -3.14159
-0.866025      -0.5  -3.14159
0.866025     -0.5 -3.14159
-0.913545 -0.406737  -3.14159
 0.913545 -0.406737  -3.14159
-0.951057 -0.309017  -3.14159
 0.951057 -0.309017  -3.14159
-0.978148 -0.207912  -3.14159
 0.978148 -0.207912  -3.14159
-0.994522 -0.104528  -3.14159
 0.994522 -0.104528  -3.14159
          -1 -5.66554e-16     -3.14159
       1        0 -3.14159
-0.994522  0.104528  -3.14159
0.994522 0.104528 -3.14159
-0.978148  0.207912  -3.14159
0.978148 0.207912 -3.14159
-0.951057  0.309017  -3.14159
0.951057 0.309017 -3.14159
-0.913545  0.406737  -3.14159
0.913545 0.406737 -3.14159
-0.866025       0.5  -3.14159
0.866025      0.5 -3.14159
-0.809017  0.587785  -3.14159
0.809017 0.587785 -3.14159
-0.743145  0.669131  -3.14159
0.743145 0.669131 -3.14159
-0.669131  0.743145  -3.14159
0.669131 0.743145 -3.14159
-0.587785  0.809017  -3.14159
0.587785 0.809017 -3.14159
    -0.5 0.866025 -3.14159
     0.5 0.866025 -3.14159
-0.406737  0.913545  -3.14159
0.406737 0.913545 -3.14159
-0.309017  0.951057  -3.14159
0.309017 0.951057 -3.14159
-0.207912  0.978148  -3.14159
0.207912 0.978148 -3.14159
-0.104528  0.994522  -3.14159
0.104528 0.994522 -3.14159
-1.83697e-16            1     -3.14159
-0.052336  -0.99863   -3.0509
0.052336 -0.99863  -3.0509
-0.156434 -0.987688   -3.0509
 0.156434 -0.987688   -3.0509
-0.258819 -0.965926   -3.0509
 0.258819 -0.965926   -3.0509
-0.358368  -0.93358   -3.0509
0.358368 -0.93358  -3.0509
 -0.45399 -0.891007   -3.0509
  0.45399 -0.891007   -3.0509
-0.544639 -0.838671   -3.0509
 0.544639 -0.838671   -3.0509
 -0.62932 -0.777146   -3.0509
  0.62932 -0.777146   -3.0509
-0.707107 -0.707107   -3.0509
 0.707107 -0.707107   -3.0509
-0.777146  -0.62932   -3.0509
0.777146 -0.62932  -3.0509
-0.838671 -0.544639   -3.0509
 0.838671 -0.544639   -3.0509
-0.891007  -0.45399   -3.0509
0.891007 -0.45399  -3.0509
 -0.93358 -0.358368   -3.0509
  0.93358 -0.358368   -3.0509
-0.965926 -0.258819   -3.0509
 0.965926 -0.258819   -3.0509
-0.987688 -0.156434   -3.0509
 0.987688 -0.156434   -3.0509
 -0.99863 -0.052336   -3.0509
  0.99863 -0.052336   -3.0509
-0.99863 0.052336  -3.0509
 0.99863 0.052336  -3.0509
-0.987688  0.156434   -3.0509
0.987688 0.156434  -3.0509
-0.965926  0.258819   -3.0509
0.965926 0.258819  -3.0509
-0.93358 0.358368  -3.0509
 0.93358 0.358368  -3.0509
-0.891007   0.45399   -3.0509
0.891007  0.45399  -3.0509
-0.838671  0.544639   -3.0509
0.838671 0.544639  -3.0509
-0.777146   0.62932   -3.0509
0.777146  0.62932  -3.0509
-0.707107  0.707107   -3.0509
0.707107 0.707107  -3.0509
-0.62932 0.777146  -3.0509
 0.62932 0.777146  -3.0509
-0.544639  0.838671   -3.0509
0.544639 0.838671  -3.0509
-0.45399 0.891007  -3.0509
 0.45399 0.891007  -3.0509
-0.358368   0.93358   -3.0509
0.358368  0.93358  -3.0509
-0.258819  0.965926   -3.0509
0.258819 0.965926  -3.0509
-0.156434  0.987688   -3.0509
0.156434 0.987688  -3.0509
-0.052336   0.99863   -3.0509
0.052336  0.99863  -3.0509
6.12323e-17          -1    -2.96021
-0.104528 -0.994522  -2.96021
 0.104528 -0.994522  -2.96021
-0.207912 -0.978148  -2.96021
 0.207912 -0.978148  -2.96021
-0.309017 -0.951057  -2.96021
 0.309017 -0.951057  -2.96021
-0.406737 -0.913545  -2.96021
 0.406737 -0.913545  -2.96021
     -0.5 -0.866025  -2.96021
      0.5 -0.866025  -2.96021
-0.587785 -0.809017  -2.96021
 0.587785 -0.809017  -2.96021
-0.669131 -0.743145  -2.96021
 0.669131 -0.743145  -2.96021
-0.743145 -0.669131  -2.96021
 0.743145 -0.669131  -2.96021
-0.809017 -0.587785  -2.96021
 0.809017 -0.587785  -2.96021
-0.866025      -0.5  -2.96021
0.866025     -0.5 -2.96021
-0.913545 -0.406737  -2.96021
 0.913545 -0.406737  -2.96021
-0.951057 -0.309017  -2.96021
 0.951057 -0.309017  -2.96021
-0.978148 -0.207912  -2.96021
 0.978148 -0.207912  -2.96021
-0.994522 -0.104528  -2.96021
 0.994522 -0.104528  -2.96021
          -1 -5.66554e-16     -2.96021
          1 2.77556e-17    -2.96021
-0.994522  0.104528  -2.96021
0.994522 0.104528 -2.96021
-0.978148  0.207912  -2.96021
0.978148 0.207912 -2.96021
-0.951057  0.309017  -2.96021
0.951057 0.309017 -2.96021
-0.913545  0.406737  -2.96021
0.913545 0.406737 -2.96021
-0.866025       0.5  -2.96021
0.866025      0.5 -2.96021
-0.809017  0.587785  -2.96021
0.809017 0.587785 -2.96021
-0.743145  0.669131  -2.96021
0.743145 0.669131 -2.96021
-0.669131  0.743145  -2.96021
0.669131 0.743145 -2.96021
-0.587785  0.809017  -2.96021
0.587785 0.809017 -2.96021
    -0.5 0.866025 -2.96021
     0.5 0.866025 -2.96021
-0.406737  0.913545  -2.96021
0.406737 0.913545 -2.96021
-0.309017  0.951057  -2.96021
0.309017 0.951057 -2.96021
-0.207912  0.978148  -2.96021
0.207912 0.978148 -2.96021
-0.104528  0.994522  -2.96021
0.104528 0.994522 -2.96021
-1.83697e-16            1     -2.96021
-0.052336  -0.99863  -2.86952
0.052336 -0.99863 -2.86952
-0.156434 -0.987688  -2.86952
 0.156434 -0.987688  -2.86952
-0.258819 -0.965926  -2.86952
 0.258819 -0.965926  -2.86952
-0.358368  -0.93358  -2.86952
0.358368 -0.93358 -2.86952
 -0.45399 -0.891007  -2.86952
  0.45399 -0.891007  -2.86952
-0.544639 -0.838671  -2.86952
 0.544639 -0.838671  -2.86952
 -0.62932 -0.777146  -2.86952
  0.62932 -0.777146  -2.86952
-0.707107 -0.707107  -2.86952
 0.707107 -0.707107  -2.86952
-0.777146  -0.62932  -2.86952
0.777146 -0.62932 -2.86952
-0.838671 -0.544639  -2.86952
 0.838671 -0.544639  -2.86952
-0.891007  -0.45399  -2.86952
0.891007 -0.45399 -2.86952
 -0.93358 -0.358368  -2.86952
  0.93358 -0.358368  -2.86952
-0.965926 -0.258819  -2.86952
 0.965926 -0.258819  -2.86952
-0.987688 -0.156434  -2.86952
 0.987688 -0.156434  -2.86952
 -0.99863 -0.052336  -2.86952
  0.99863 -0.052336  -2.86952
-0.99863 0.052336 -2.86952
 0.99863 0.052336 -2.86952
-0.987688  0.156434  -2.86952
0.987688 0.156434 -2.86952
-0.965926  0.258819  -2.86952
0.965926 0.258819 -2.86952
-0.93358 0.358368 -2.86952
 0.93358 0.358368 -2.86952
-0.891007   0.45399  -2.86952
0.891007  0.45399 -2.86952
-0.838671  0.544639  -2.86952
0.838671 0.544639 -2.86952
-0.777146   0.62932  -2.86952
0.777146  0.62932 -2.86952
-0.707107  0.707107  -2.86952
0.707107 0.707107 -2.86952
-0.62932 0.777146 -2.86952
 0.62932 0.777146 -2.86952
-0.544639  0.838671  -2.86952
0.544639 0.838671 -2.86952
-0.45399 0.891007 -2.86952
 0.45399 0.891007 -2.86952
-0.358368   0.93358  -2.86952
0.358368  0.93358 -2.86952
-0.258819  0.965926  -2.86952
0.258819 0.965926 -2.86952
-0.156434  0.987688  -2.86952
0.156434 0.987688 -2.86952
-0.052336   0.99863  -2.86952
0.052336  0.99863 -2.86952
6.12323e-17          -1    -2.77883
-0.104528 -0.994522  -2.77883
 0.104528 -0.994522  -2.77883
-0.207912 -0.978148  -2.77883
 0.207912 -0.978148  -2.77883
-0.309017 -0.951057  -2.77883
 0.309017 -0.951057  -2.77883
-0.406737 -0.913545  -2.77883
 0.406737 -0.913545  -2.77883
     -0.5 -0.866025  -2.77883
      0.5 -0.866025  -2.77883
-0.587785 -0.809017  -2.77883
 0.587785 -0.809017  -2.77883
-0.669131 -0.743145  -2.77883
 0.669131 -0.743145  -2.77883
-0.743145 -0.669131  -2.77883
 0.743145 -0.669131  -2.77883
-0.809017 -0.587785  -2.77883
 0.809017 -0.587785  -2.77883
-0.866025      -0.5  -2.77883
0.866025     -0.5 -2.77883
-0.913545 -0.406737  -2.77883
 0.913545 -0.406737  -2.77883
-0.951057 -0.309017  -2.77883
 0.951057 -0.309017  -2.77883
-0.978148 -0.207912  -2.77883
 0.978148 -0.207912  -2.77883
-0.994522 -0.104528  -2.77883
 0.994522 -0.104528  -2.77883
          -1 -1.22465e-16     -2.77883
          1 5.55112e-17    -2.77883
-0.994522  0.104528  -2.77883
0.994522 0.104528 -2.77883
-0.978148  0.207912  -2.77883
0.978148 0.207912 -2.77883
-0.951057  0.309017  -2.77883
0.951057 0.309017 -2.77883
-0.913545  0.406737  -2.77883
0.913545 0.406737 -2.77883
-0.866025       0.5  -2.77883
0.866025      0.5 -2.77883
-0.809017  0.587785  -2.77883
0.809017 0.587785 -2.77883
-0.743145  0.669131  -2.77883
0.743145 0.669131 -2.77883
-0.669131  0.743145  -2.77883
0.669131 0.743145 -2.77883
-0.587785  0.809017  -2.77883
0.587785 0.809017 -2.77883
    -0.5 0.866025 -2.77883
     0.5 0.866025 -2.77883
-0.406737  0.913545  -2.77883
0.406737 0.913545 -2.77883
-0.309017  0.951057  -2.77883
0.309017 0.951057 -2.77883
-0.207912  0.978148  -2.77883
0.207912 0.978148 -2.77883
-0.104528  0.994522  -2.77883
0.104528 0.994522 -2.77883
-1.83697e-16            1     -2.77883
-0.052336  -0.99863  -2.68814
0.052336 -0.99863 -2.68814
-0.156434 -0.987688  -2.68814
 0.156434 -0.987688  -2.68814
-0.258819 -0.965926  -2.68814
 0.258819 -0.965926  -2.68814
-0.358368  -0.93358  -2.68814
0.358368 -0.93358 -2.68814
 -0.45399 -0.891007  -2.68814
  0.45399 -0.891007  -2.68814
-0.544639 -0.838671  -2.68814
 0.544639 -0.838671  -2.68814
 -0.62932 -0.777146  -2.68814
  0.62932 -0.777146  -2.68814
-0.707107 -0.707107  -2.68814
 0.707107 -0.707107  -2.68814
-0.777146  -0.62932  -2.68814
0.777146 -0.62932 -2.68814
-0.838671 -0.544639  -2.68814
 0.838671 -0.544639  -2.68814
-0.891007  -0.45399  -2.68814
0.891007 -0.45399 -2.68814
 -0.93358 -0.358368  -2.68814
  0.93358 -0.358368  -2.68814
-0.965926 -0.258819  -2.68814
 0.965926 -0.258819  -2.68814
-0.987688 -0.156434  -2.68814
 0.987688 -0.156434  -2.68814
 -0.99863 -0.052336  -2.68814
  0.99863 -0.052336  -2.68814
-0.99863 0.052336 -2.68814
 0.99863 0.052336 -2.68814
-0.987688  0.156434  -2.68814
0.987688 0.156434 -2.68814
-0.965926  0.258819  -2.68814
0.965926 0.258819 -2.68814
-0.93358 0.358368 -2.68814
 0.93358 0.358368 -2.68814
[...]
POINT_DATA 4260
SCALARS Field double
LOOKUP_TABLE default
1.87374
0.298877
2.47942
-1.43513
1.80624
-2.4342
0.202331
-2.18118
-1.50546
-0.80183
-2.43763
0.997898
-2.11512
2.29304
-0.704252
2.4158
1.06885
1.29852
2.29172
-0.490314
2.33595
-2.03545
1.1794
-2.54464
-0.582773
-1.75493
-2.04356
-0.0672693
-2.45159
1.65692
-1.59735
2.53684
0.079859
2.12369
1.71675
0.629098
2.4707
-1.18269
1.95359
-2.38587
0.430576
-2.36804
-1.31522
-1.14209
-2.38533
0.66149
-2.22911
2.11774
-0.926291
2.48276
0.853222
1.57416
2.19304
-0.137505
2.40287
-1.77054
1.37361
-2.48628
-0.366056
-1.91998
0.320413
1.88568
-1.41331
2.47692
-2.42141
1.79119
-2.18238
0.182356
-0.815571
-1.52071
0.978476
-2.44122
2.27665
-2.10615
2.4088
-0.688085
1.30226
1.08335
-0.479484
2.29666
-2.02376
2.32836
-2.53741
1.16265
-1.75401
-0.600647
-0.0706379
-2.05383
1.65339
-2.44921
2.53654
-1.58337
2.12706
0.0987489
0.633312
1.73152
-1.18192
2.47447
-2.39149
1.94501
-2.37934
0.414512
-1.15444
-1.33006
0.654567
-2.39077
2.12118
-2.22164
2.49695
-0.908967
1.59406
0.872169
-0.120403
2.20415
-1.76429
2.40012
-2.49446
1.35743
-1.93966
-0.388922
0.342469
-1.39214
1.89894
-2.41048
2.47601
-2.18632
1.77757
-0.832193
0.163432
0.956939
-1.53531
2.25965
-2.44443
2.403
-2.09685
1.30871
-0.671518
-0.465315
1.09828
-2.00918
2.30189
-2.52868
2.32067
-1.75344
1.1453
-0.0760534
-0.619572
1.64679
-2.06538
2.53308
-2.44799
2.12807
-1.5702
0.636569
0.117241
-1.18055
1.74618
-2.39519
2.47814
-2.38798
1.93613
-1.16416
0.397944
0.649581
-1.34541
2.12538
-2.39639
2.51055
-2.21368
1.61221
-0.890334
-0.105762
0.893081
-1.76061
2.21748
-2.50471
2.39932
-1.96045
1.34242
-0.411728
-1.37193
0.364301
-2.40133
1.91249
-2.19263
2.47567
-0.851187
1.76462
0.933772
0.14522
2.24244
-1.54915
2.3987
-2.44678
1.31803
-2.08658
-0.447772
-0.653973
-1.99189
1.11405
-2.51891
2.30765
-1.75394
2.31311
-0.0843163
1.12763
1.6365
-0.639136
2.52629
-2.0777
2.12713
-2.44748
0.639797
-1.55758
-1.1774
0.135296
-2.39595
1.76035
-2.39347
2.48112
-1.17139
1.92628
0.645788
0.38022
2.12926
-1.36182
2.52253
-2.4026
1.62796
-2.20558
-0.0936582
-0.8707
-1.759
0.915745
-2.51612
2.233
-1.98129
2.40073
-0.433543
1.3292
-1.3529
-2.3936
0.385188
-2.20049
1.92533
-0.871627
2.47493
0.909731
1.75167
2.22543
0.127435
2.39591
-1.56217
1.32996
-2.44807
-0.427259
-2.0752
-1.97234
-0.635395
-2.50853
1.13066
-1.75589
2.31402
-0.0957592
2.30593
1.62234
1.11018
2.51626
-0.658633
2.12471
-2.09005
0.643767
-2.4471
-1.17158
-1.54521
-2.39306
0.152945
-2.3955
1.77389
-1.17639
2.48316
0.642422
1.9152
2.1318
0.361079
2.53195
-1.37963
1.64075
-2.40992
-0.0840555
-2.19802
-1.7588
-0.850864
-2.52761
0.939427
-2.00099
2.25028
-0.453351
2.40439
1.31835
-2.38678
-1.33517
-2.20892
0.404543
-0.892323
1.93671
0.885808
2.47317
2.20908
1.73835
2.39448
0.10994
1.34388
-1.57448
-0.404601
-2.44851
-1.95125
-2.06307
-2.49798
-0.616253
-1.75942
1.14776
-0.110246
2.32095
1.60463
2.29948
2.50346
1.09355
2.12136
-0.677328
0.649078
-2.10181
-1.16257
-2.44643
-2.38619
-1.53284
-2.3941
0.170358
-1.1796
1.787
0.638719
2.48457
2.13213
1.9032
2.5381
0.340688
1.65028
-1.39898
-0.0767467
-2.4189
-1.75935
-2.19192
-2.53819
-0.831937
-2.0185
0.963081
-0.470323
2.2686
1.31025
2.41012
-2.38048
-2.217
-1.31879
-0.912077
0.422059
0.863057
1.94637
2.19391
2.47028
2.39421
1.7247
1.35897
0.092706
-0.380886
-1.58635
-1.92956
-2.44874
-2.48776
-2.05106
-1.7645
-0.597347
-0.127275
1.16486
1.58411
2.32841
2.48864
2.29408
2.11772
1.07826
0.656162
-0.694805
-1.15018
-2.11274
-2.37547
-2.44535
-2.38971
-1.52031
-1.18171
0.187916
0.633911
1.80034
2.12958
2.48619
2.54059
1.8911
1.65657
0.319552
-0.0712903
-1.41985
-1.7599
-2.43004
-2.54703
-2.18823
-2.03309
-0.815047
-0.484042
0.985639
1.30491
2.28715
2.4175
-2.22413
-2.37448
-0.929992
-1.30377
0.84238
0.437812
2.18044
1.95459
2.39496
2.46674
1.37442
1.7111
-0.357265
0.0757409
-1.90832
-1.59831
-2.47843
-2.44969
-1.77099
-2.04021
-0.146159
-0.579478
1.56176
1.18162
2.47277
2.33645
2.11447
2.28997
0.665303
1.06441
-1.13454
-0.711206
-2.36137
-2.12317
-2.38305
-2.44413
-1.18355
-1.50755
0.627222
0.2062
2.12364
1.81494
2.53937
2.48921
1.66003
1.87993
-0.0669527
0.298322
-1.75961
-1.4421
-2.55345
-2.44363
-2.04446
-2.18752
-0.494613
-0.800978
1.30187
1.00624
2.4258
2.30511
-2.23022
-0.945695
-2.36881
0.82431
-1.28999
2.16903
0.45226
2.39663
1.96217
1.38958
2.4634
-0.334765
1.6981
-1.88853
0.0590001
-2.4705
-1.611
-1.77874
-2.45231
-0.166148
-2.03136
1.53864
-0.563095
2.4568
1.19801
2.1122
2.34524
0.676612
2.28714
-1.11598
1.0516
-2.34456
-0.727297
-2.37498
-2.13393
-1.18598
-2.44329
0.617947
-1.49446
2.11397
0.225892
2.53457
1.83185
1.66129
2.49474
-0.0627502
1.87059
-1.75751
0.277589
-2.55684
-1.46538
-2.05257
-2.45952
-0.502628
-2.18979
1.30012
-0.789912
2.43398
1.02439
2.32162
-0.959418
-2.23565
0.808862
-2.36371
2.15981
-1.27723
2.39916
0.466184
1.40402
1.97023
-0.314138
2.46128
-1.87094
1.6862
-2.46438
0.0423067
-1.78757
-1.62506
-0.1865
-2.45729
1.51572
-2.02484
2.44156
-0.548045
2.11131
1.21443
0.689947
2.355
-1.09508
2.28528
-2.32581
1.03892
-2.36628
-0.74432
-1.1897
-2.14612
0.605617
-2.44338
2.10042
-1.48096
2.52646
0.247575
1.66109
1.8518
-0.0576395
2.50341
-1.75255
1.86356
-2.55655
0.257795
-2.05752
-1.48908
-0.508934
-2.4769
1.29833
-2.19424
2.44065
-0.781395
2.33577
1.03989
-0.971943
0.795546
-2.24119
2.15262
-2.35951
2.40251
-1.26514
1.41755
0.480541
-0.295772
1.97993
-1.856
2.46124
-2.4603
1.67562
-1.79724
0.0253509
-0.20652
-1.64095
1.49387
-2.46476
2.42772
-2.02027
2.11192
-0.533556
0.704871
1.2316
-1.07262
2.36588
-2.30595
2.28378
-2.35758
1.02515
-1.19503
-0.763621
0.590162
-2.16072
2.08312
-2.44478
2.51541
-1.46696
1.66003
0.271445
-0.0507688
1.87482
-1.7438
2.51502
-2.55195
1.85868
-2.0593
0.239259
-0.514335
-1.51225
1.29508
-2.49428
2.4443
-2.19935
2.34656
-0.774505
1.0527
0.783506
-0.984389
2.14706
-2.24777
2.40665
-2.35653
1.43028
-1.25329
-0.279697
0.496258
-1.84388
1.99217
-2.45831
2.46372
-1.80747
1.66626
-0.225572
0.00773317
1.47387
-1.65886
2.41577
-2.47433
2.11395
-2.01661
0.720687
-0.518411
-1.04963
1.25032
-2.28593
2.37791
-2.34935
2.28183
-1.20188
1.00912
0.572057
-0.786181
2.06264
-2.17821
2.50188
-2.44756
1.65851
-1.45248
-0.0417201
0.297087
-1.73078
1.89998
-2.54259
2.52848
-2.05781
1.85531
-0.519351
0.222265
1.28921
-1.53352
2.44354
-2.50969
2.35296
-2.20325
1.06272
-0.768177
0.771719
2.14266
-0.997944
2.4117
-2.25623
1.44258
-2.35493
-0.265584
-1.24118
-1.83443
0.514053
-2.45836
2.00741
-1.81806
2.4686
-0.243142
1.65758
1.45638
-0.010997
2.40617
-1.67864
2.11728
-2.48506
0.736567
-2.01245
-1.02736
-0.501285
-2.2668
1.27127
-2.342
2.39089
-1.20982
2.27873
0.55232
0.990134
2.04009
-0.812232
2.48659
-2.19833
1.65671
-2.45139
-0.0306576
-1.43776
-1.71367
0.323394
-2.52847
1.92549
-2.05297
2.542
-0.524101
1.85248
1.28017
0.207179
2.4374
-1.55132
2.35408
-2.52098
1.06972
-2.20415
-0.761588
2.13895
0.759201
2.41785
-1.01365
1.45511
-2.26717
-0.252753
-2.35467
-1.82728
-1.22835
-2.46039
0.534323
-1.82899
2.02552
-0.258992
2.47522
1.44193
1.64874
2.39942
-0.0312716
2.12192
-1.6999
0.751814
-2.49578
-1.00704
-2.00637
-2.24981
-0.481148
-2.33608
1.2947
-1.21836
2.40445
0.532317
2.27402
2.01706
0.968255
2.47065
-0.841023
1.6548
-2.22002
-0.0182509
-2.45565
-1.69344
-1.42328
-2.51032
0.34864
-2.04496
1.94894
-0.528383
2.55347
1.26811
1.84923
2.42571
0.194505
2.34944
-1.56409
1.07336
-2.52637
-0.754394
-2.2008
2.13558
2.42546
0.745147
1.46879
-1.03222
-0.240218
-2.28081
-1.82186
-2.35542
-2.46439
-1.21437
-1.84058
0.557082
-0.273329
2.04584
1.43068
2.48244
2.39596
1.6387
2.12818
-0.0534333
0.766148
-1.7221
-0.989637
-2.5054
-2.23619
-1.99733
-2.33236
-0.457584
-1.22721
1.32036
0.513417
2.41812
1.99544
2.26771
2.45555
0.944421
1.65314
-0.870852
-0.00539913
-2.24157
-1.67176
-2.45959
-2.48965
-1.40977
-2.03449
0.370798
-0.531939
1.96785
1.25385
2.56096
2.40917
1.84488
2.33924
0.18479
1.07343
-1.57065
-0.746763
-2.52485
-2.19284
2.43487
2.13218
1.48463
0.728952
-0.226739
-1.05397
-1.81732
-2.29691
-2.47032
-2.35663
-1.85346
-1.19888
-0.286915
0.58202
1.4223
2.06734
2.39608
2.48891
2.13667
1.62647
0.779883
-0.0776828
-0.975543
-1.74468
-2.22691
-2.51313
-2.33181
-1.98497
-1.23659
-0.430963
0.496587
1.34742
1.97705
2.43139
2.44306
2.2603
1.65248
0.920317
0.00713063
-0.899373
-1.65057
-2.261
-2.46867
-2.46246
-2.02292
-1.39804
-0.534759
0.387966
1.23858
1.98018
2.38936
2.56318
2.32455
1.83918
1.0701
0.178458
-0.739198
-1.57057
-2.18082
-2.51651
2.44622
1.50355
2.12835
-0.210975
0.710218
-1.81262
-1.0788
-2.478
-2.31479
-1.86843
-2.35752
-0.301047
-1.18158
1.41579
0.608609
2.39964
2.08881
2.14804
2.49335
0.793929
1.61131
-0.964323
-0.103983
-2.22239
-1.76714
-2.33539
-2.51867
-1.24721
-1.96974
0.482042
-0.402457
1.96318
1.37459
2.43492
2.44372
1.65396
2.25262
0.0190593
0.898031
-1.63163
-0.924057
-2.44984
-2.27636
-2.01221
-2.46366
-0.5373
-1.3888
1.22348
0.398796
2.36838
1.98479
2.30729
2.55968
1.06415
1.83224
-0.732208
0.175607
-2.16599
-1.56438
-2.50249
1.526
2.4592
-0.191759
2.12351
-1.80651
0.688756
-2.48694
-1.10615
-1.88618
-2.33341
-0.317299
-2.35711
1.40952
-1.16222
2.40585
0.636203
2.16275
2.10911
0.809576
2.4948
-0.954731
1.59293
-2.22221
-0.131956
-2.34367
-1.78903
-1.26013
-2.52219
0.469131
-1.95277
1.95419
-0.373862
2.43239
1.40028
1.65891
2.45459
0.0307745
2.2456
-1.61605
0.879579
-2.43535
-0.942696
-2.00454
-2.28619
-0.540559
-2.46279
1.20933
-1.38242
2.34844
0.402831
2.28991
1.98171
1.05706
2.55096
-0.725965
1.82445
-2.14991
0.175824
-2.48481
-1.55349
1.55176
-0.168413
2.47296
-1.79778
2.11693
-2.49626
0.664627
-1.9069
-1.13507
-0.337082
-2.35141
1.40154
-2.35444
2.41328
-1.14068
2.18069
0.664137
0.828066
2.12739
-0.944942
2.49289
-2.22505
1.57171
-2.35659
-0.160836
-1.2764
-1.8099
0.456509
-2.52421
1.94939
-1.93564
2.43589
-0.3473
1.6685
1.42275
0.0432269
2.46342
-1.60396
2.23996
-2.42661
0.866453
-2.0019
-0.953851
-0.545882
-2.28966
1.19638
-2.45965
2.33139
-1.37882
2.275
0.400635
1.05082
1.97205
-0.720131
2.53818
-2.13402
1.8162
-2.46588
0.178145
-1.54009
-0.141034
1.57976
-1.78555
2.48619
-2.50478
2.10793
-1.93011
0.638243
-0.36118
-1.16429
1.39003
-2.36742
2.42004
-2.34875
2.20102
-1.11711
0.850157
0.691781
-0.933011
2.14321
-2.2289
2.4879
-2.37319
1.54865
-1.2966
-0.189452
0.442528
-1.82921
1.94717
-2.52536
2.4448
-1.92009
1.68334
-0.324879
0.0576199
1.44037
-1.59455
2.46959
-2.42392
2.236
-2.00556
0.859321
-0.554622
-0.957096
1.18424
-2.28675
2.31835
-2.45423
2.26476
-1.37739
1.04753
0.393673
-0.713879
1.95779
-2.11932
2.52293
-2.44803
1.80774
-1.52665
0.181164
-0.110626
-1.76956
1.60826
-2.51128
2.49742
-1.9546
2.09614
-0.389395
0.610421
1.37386
-1.1924
2.42429
-2.38031
2.2223
-2.33978
0.875817
-1.09197
-0.917432
0.718556
-2.23153
2.1566
-2.39179
2.48079
-1.32058
1.52535
0.425773
-0.216324
1.94542
-1.84634
2.45754
-2.5262
1.70316
-1.90759
0.0749863
-0.308331
-1.5864
1.45184
-2.42645
2.47248
-2.01576
2.2335
-0.567765
0.857893
1.17212
-0.953039
2.30958
-2.27813
2.2606
-2.44664
1.04902
-1.37713
-0.706107
0.384019
-2.10622
1.94135
-2.43315
2.50683
-1.51556
1.79907
0.18325
-1.75036
-0.0789404
-2.5149
1.63531
-1.97876
2.50555
-0.420486
2.08173
1.35302
0.582294
2.42473
-1.21822
2.24287
-2.38962
0.904158
-2.32793
-0.897576
-1.06608
-2.23104
0.743981
-2.41033
2.16799
-1.34736
2.47293
0.40552
1.50362
1.94211
-0.239885
2.47194
-1.86056
1.7269
-2.52699
0.0957922
-1.89907
-1.57792
-0.298705
-2.43254
1.45636
-2.03173
2.47153
-0.58563
2.23182
1.15917
0.861041
2.30455
-0.943181
2.26289
-2.26508
1.05639
-2.43715
-0.695804
-1.37688
-2.09468
0.373969
-2.42245
1.92514
-1.50877
2.4913
0.182842
1.79
-1.7293
-2.5155
-0.0480095
-2.00104
1.65933
-0.452509
2.51023
1.32865
2.06555
2.42107
0.555041
2.26129
-1.24114
0.933701
-2.39576
-0.873858
-2.31436
-2.2264
-1.04055
-2.42693
0.767736
-1.3754
2.17809
0.381929
2.4658
1.93582
1.48519
2.48582
-0.25874
1.75282
-1.87112
0.119773
-2.52762
-1.56784
-1.89474
-2.44022
-0.296199
-2.05189
1.45385
-0.607764
2.46647
1.14476
2.23004
2.30226
0.867082
2.27108
-0.929613
1.06984
-2.24925
-0.682359
-2.42616
-2.0844
-1.37552
-2.41646
0.365639
-1.50751
1.91126
0.178739
2.47741
1.78024
-2.51378
-1.70816
-2.02056
-0.01952
-0.483417
1.67974
1.30277
2.51216
2.41416
2.04887
2.27688
0.529485
0.96287
-1.26151
-0.847588
-2.40009
-2.21771
-2.30069
-2.44041
-1.01643
-1.40305
0.789718
0.355946
2.18763
1.92611
2.46057
2.49754
1.47124
1.77911
-0.271914
0.146038
-1.87734
-1.55556
-2.52755
-2.44772
-1.89405
-2.07431
-0.300119
-0.633113
1.44493
1.12865
2.45739
2.30159
2.22726
2.28393
0.874114
1.08871
-0.914662
-0.665727
-2.23248
-2.07507
-2.41424
-2.41517
-1.37222
-1.51227
0.360696
0.170258
1.90126
1.76958
2.46591
-2.51111
-2.03739
-1.68855
-0.511763
0.00583407
1.27761
1.69724
2.40571
2.51289
2.28995
2.03295
0.990509
0.505648
-0.820507
-1.28063
-2.20613
-2.40457
-2.45063
-2.28849
-1.42912
-0.994395
0.32892
0.810049
1.91348
2.19707
2.50636
2.45767
1.80429
1.46213
0.173386
-0.279023
-1.54117
-1.87868
-2.45387
-2.52601
-2.09723
-1.89582
-0.660337
-0.309009
1.11107
1.43095
2.30158
2.44489
2.29994
2.22289
1.11177
0.880366
-0.646419
-0.900601
-2.06654
-2.2166
-2.41822
-2.40211
-1.52292
-1.36652
0.157292
0.360244
1.75804
1.89617
2.45729
-2.05265
-2.5091
-0.537259
-1.67129
1.25479
0.0287472
2.39778
1.71371
2.3017
2.51434
1.01629
2.0185
-0.794168
0.482532
-2.19343
-1.30056
-2.45853
-2.41109
-1.45325
-2.27871
0.302064
-0.974445
1.89905
0.82898
2.51257
2.20631
1.82767
2.45663
0.20074
1.45739
-1.52526
-0.280264
-2.4583
-1.87488
-2.1195
-2.52217
-0.688205
-1.89862
1.0925
-0.320932
2.30162
1.41381
2.31775
2.43012
1.13759
2.21677
-0.625275
0.884458
-2.05886
-0.889415
-2.42514
-2.20334
-1.53891
-2.39065
0.14023
-1.35839
1.74585
0.364834
2.45192
1.89658
-2.06812
-0.560934
-2.50896
1.23479
-1.65599
2.39197
0.0512395
2.31379
1.73169
1.04085
2.51805
-0.769416
2.00514
-2.18137
0.45826
-2.46571
-1.3234
-1.47601
-2.42072
0.276011
-2.27111
1.8841
-0.955891
2.51717
0.846638
1.84943
2.21457
0.22754
2.4562
-1.50855
1.45589
-2.46125
-0.276282
-2.14066
-1.86608
-0.715944
-2.51551
1.07341
-1.90109
2.30147
-0.333788
2.33637
1.39579
1.16495
2.41468
-0.603136
2.20925
-2.05215
0.885489
-2.43543
-0.882682
-1.55944
-2.19421
0.119743
-2.38078
1.73346
-1.34809
2.45009
0.37461
1.90274
-0.58484
-2.08561
1.21659
-2.51094
2.38883
-1.64092
2.32775
0.0761472
1.0655
1.75351
-0.746083
2.52448
-2.17109
1.9914
-2.47391
0.430593
-1.49871
-1.35049
0.250593
-2.43309
1.86951
-2.26426
2.52144
-0.937667
1.87046
0.862756
0.253897
2.22049
-1.49155
2.45478
-2.46332
1.45637
-2.16097
-0.268043
-0.743408
-1.85299
1.05405
-2.50618
2.30106
-1.90231
2.3553
-0.345587
1.19312
1.37932
-0.580556
2.40053
-2.04646
2.20113
-2.44855
0.88301
-1.58373
-0.881588
0.0965547
-2.19046
1.72134
-2.37336
2.45203
-1.33601
1.91473
0.38949
-0.611408
1.198
-2.10626
2.38757
-2.51405
2.34438
-1.62342
1.0918
0.106275
-0.723024
1.78042
-2.16265
2.5327
-2.48432
1.975
-1.52284
0.397738
0.224906
-1.3817
1.85547
-2.44631
2.52645
-2.25603
1.892
-0.918941
0.28054
0.876549
-1.47427
2.22256
-2.46506
2.45113
-2.18109
1.45785
-0.771017
-0.256772
1.03426
-1.83709
2.30031
-2.49515
2.3744
-1.90199
1.22189
-0.354623
-0.557607
1.36682
-2.04152
2.38974
-2.46395
2.19339
-1.61108
0.876868
0.0712362
-0.88698
1.70977
-2.19301
2.45775
-2.36904
1.93244
-1.32249
0.409304
1.17624
-0.642639
2.38619
-2.13007
2.36339
-2.51626
1.12102
-1.60066
-0.698505
0.143449
-2.155
1.8121
-2.49714
2.54052
-1.54958
1.95362
0.197666
0.359152
1.84141
-1.41529
2.53261
-2.45755
1.91512
-2.24446
0.30854
-0.899682
-1.45621
0.886852
-2.4667
2.21983
-2.20171
2.44491
-0.799558
1.45978
1.01346
-0.244041
2.29898
-1.82068
2.39366
-2.48424
1.25147
-1.90037
-0.533852
-0.359474
-2.03673
1.36053
-2.48093
2.38424
-1.6409
2.18695
0.0440491
0.866982
1.69865
-0.899438
2.46696
-2.20244
1.95559
-2.36813
0.433883
-1.30766
1.14881
2.38204
-0.679418
2.38341
-2.15582
1.15362
-2.51502
-0.670741
-1.57051
-2.14624
0.187844
-2.51144
1.84652
-1.57931
2.54518
0.167689
1.92584
1.8262
0.315967
2.53954
-1.44826
1.94035
-2.4641
0.3389
-2.22881
-1.43652
-0.88089
-2.46796
0.892637
-2.22324
2.21254
-0.829845
2.43698
0.990827
1.46195
2.29649
-0.231926
2.41299
-1.80679
1.28228
-2.47575
-0.508523
-1.89791
-2.03111
-0.358892
-2.49859
1.36237
-1.67271
2.38551
0.0149372
2.18235
1.68743
0.853149
2.4789
-0.91933
1.9836
-2.21885
0.463066
-2.37044
-1.29135
2.37259
1.11426
2.40235
-0.721213
1.18913
-2.18131
-0.638443
-2.50804
-2.1342
-1.5323
-2.52539
0.237781
-1.6114
1.8806
0.134292
2.54429
1.80852
1.89184
2.5462
0.270902
1.96744
-1.47736
0.372201
-2.46451
-1.41425
-2.2101
-2.46813
-0.864334
-2.24556
0.893692
-0.862385
2.20241
0.965498
2.42914
2.29209
1.46411
2.43206
-0.223007
1.31456
-1.79876
-0.480771
-2.4719
-2.0235
-1.89491
-2.51589
-0.351711
-1.70597
1.37376
-0.0163624
2.39427
1.67512
2.17948
2.49229
0.834959
2.01548
-0.94675
0.496609
-2.24175
-1.27309
-2.37521
2.35613
2.41798
1.07261
1.22623
-0.766182
-0.601217
-2.20411
-2.11702
-2.49407
-2.53675
-1.48716
-1.64442
0.290069
0.0975363
1.91105
1.78728
2.5368
2.55111
1.85369
1.99541
0.227647
0.408379
-1.50009
-1.38868
-2.45929
-2.46625
-2.19091
-2.26802
-0.851802
-0.897174
0.891116
0.936887
2.19253
2.28493
2.42353
2.45022
1.46562
1.34825
-0.220114
-0.449962
-1.79958
-2.01275
-2.4742
-2.53162
-1.89106
-1.74001
-0.336816
-0.0501409
1.3954
1.66048
2.41025
2.50543
2.17748
2.04986
0.811833
0.534076
-0.981372
-1.25217
-2.26999
-2.3811
2.42856
2.33232
1.26312
1.02541
-0.559671
-0.811664
-2.09369
-2.22219
-2.5435
-2.47331
-1.67647
-1.4379
0.0582174
0.340791
1.7619
1.93539
2.5528
2.5235
2.02278
1.81497
0.446681
0.189946
-1.3596
-1.51545
-2.46139
-2.45076
-2.2896
-2.17456
-0.933622
-0.844248
0.904887
0.887363
2.27432
2.1865
2.4666
2.42186
1.38284
1.46529
-0.41593
-0.225872
-1.99801
-1.81121
-2.54461
-2.48282
-1.774
-1.8853
-0.0864755
-0.31329
1.64233
1.427
2.5164
2.43208
2.08494
2.17488
0.574734
0.78325
-1.2279
-1.02229
-2.38633
-2.30169
2.43325
1.29797
2.30223
-0.515244
0.975347
-2.06431
-0.85487
-2.54436
-2.23453
-1.70572
-2.44757
0.0176167
-1.38841
1.73241
0.386245
2.55015
1.95259
2.04792
2.5069
0.48583
1.78001
-1.32733
0.160749
-2.4529
-1.52398
-2.3091
-2.44225
-0.970643
-2.1639
0.869946
-0.841235
2.25991
0.885722
2.48033
2.18741
1.41739
2.4247
-0.379089
1.46145
-1.97889
-0.242149
-2.55387
-1.83398
-1.8069
-2.49643
-0.125029
-1.87598
1.61986
-0.280754
2.52342
1.46717
2.11876
2.45738
0.617465
2.16982
-1.19979
0.749062
-2.38891
-1.06788
-2.33438
1.32937
2.43236
-0.469877
2.26813
-2.03004
0.925633
-2.5391
-0.893507
-1.73088
-2.24133
-0.0228342
-2.41978
1.69947
-1.34283
2.54261
0.423682
2.06942
1.9632
0.524336
2.49049
-1.29269
1.75278
-2.44057
0.14165
-2.32547
-1.5274
-1.0069
-2.43687
0.833015
-2.16024
2.24183
-0.840909
2.49067
0.889366
1.45075
2.19686
-0.340394
2.43109
-1.95563
1.45222
-2.55878
-0.269594
-1.83764
-1.86636
-0.164985
-2.51237
1.59291
-1.86132
2.52519
-0.239731
2.14939
1.51332
0.660808
2.48311
-1.16783
2.16059
-2.38709
0.709784
-2.36526
-1.11581
1.35656
-0.425589
2.42718
-1.99284
2.23298
-2.52855
0.879361
-1.75142
-0.926172
-0.0618713
-2.24394
1.66411
-2.39344
2.53031
-1.30476
2.0864
0.451688
0.560816
1.96889
-1.25682
2.47774
-2.4247
1.73592
-2.33801
0.132629
-1.0411
-1.52797
0.795364
-2.43656
2.22068
-2.16294
2.49729
-0.840501
1.48181
0.900408
-0.301178
2.21431
-1.92907
2.43868
-2.55924
1.43587
-1.86523
-0.307369
-0.205118
-1.90522
1.56213
-2.5273
2.52118
-1.84012
2.17531
-0.191913
0.703118
1.56196
-1.13265
2.50611
-2.37973
2.1461
-2.39173
0.666762
-1.16325
-0.384118
1.37951
-1.95501
2.41967
-2.51435
2.19981
-1.76763
0.839008
-0.0986301
-0.952441
1.62757
-2.24434
2.51399
-2.37179
2.09869
-1.27666
0.5943
0.47013
-1.22086
1.97169
-2.40595
2.47104
-2.34654
1.73013
-1.07224
0.132154
0.75829
-1.52782
2.19745
-2.44162
2.50032
-2.16965
1.50973
-0.837155
-0.262864
0.919277
-1.90051
2.23722
-2.55571
2.44427
-1.88904
1.41147
-0.244011
-0.353104
1.52887
-1.94638
2.51185
-2.5381
2.19571
-1.81229
0.742801
-0.140145
-1.09548
1.60925
-2.36663
2.52378
-2.41185
2.12623
-1.20741
0.62209
-0.346738
-1.91883
1.39874
-2.49855
2.41197
-1.78044
2.17128
-0.132694
0.806206
1.5911
-0.972657
2.49487
-2.24457
2.10677
-2.35721
0.624414
-1.25963
-1.18576
0.4798