# vtk DataFile Version 3.1
vtk output
ASCII
DATASET POLYDATA
POINTS 2009 FLOAT
0.0383027 -0.999266  -3.14159
-0.114683 -0.993402  -3.14159
 0.190391 -0.981708  -3.14159
-0.264982 -0.964253  -3.14159
0.338017 -0.94114 -3.14159
-0.409069 -0.912504  -3.14159
  0.47772 -0.878512  -3.14159
-0.543568 -0.839365  -3.14159
 0.606225 -0.795293  -3.14159
-0.665326 -0.746553  -3.14159
 0.720522 -0.693433  -3.14159
-0.771489 -0.636242  -3.14159
 0.817929 -0.575319  -3.14159
 -0.85957 -0.511019  -3.14159
0.896166 -0.44372 -3.14159
-0.927502 -0.373817  -3.14159
 0.953396 -0.301721  -3.14159
-0.973695 -0.227854  -3.14159
  0.98828 -0.152649  -3.14159
 -0.997066 -0.0765493   -3.14159
       1        0 -3.14159
-0.997066 0.0765493  -3.14159
 0.98828 0.152649 -3.14159
-0.973695  0.227854  -3.14159
0.953396 0.301721 -3.14159
-0.927502  0.373817  -3.14159
0.896166  0.44372 -3.14159
-0.85957 0.511019 -3.14159
0.817929 0.575319 -3.14159
-0.771489  0.636242  -3.14159
0.720522 0.693433 -3.14159
-0.665326  0.746553  -3.14159
0.606225 0.795293 -3.14159
-0.543568  0.839365  -3.14159
 0.47772 0.878512 -3.14159
-0.409069  0.912504  -3.14159
0.338017  0.94114 -3.14159
-0.264982  0.964253  -3.14159
0.190391 0.981708 -3.14159
-0.114683  0.993402  -3.14159
0.0383027  0.999266  -3.14159
-0.0383027  -0.999266   -3.00888
 0.114683 -0.993402  -3.00888
-0.190391 -0.981708  -3.00888
 0.264982 -0.964253  -3.00888
-0.338017  -0.94114  -3.00888
 0.409069 -0.912504  -3.00888
 -0.47772 -0.878512  -3.00888
 0.543568 -0.839365  -3.00888
-0.606225 -0.795293  -3.00888
 0.665326 -0.746553  -3.00888
-0.720522 -0.693433  -3.00888
 0.771489 -0.636242  -3.00888
-0.817929 -0.575319  -3.00888
  0.85957 -0.511019  -3.00888
-0.896166  -0.44372  -3.00888
 0.927502 -0.373817  -3.00888
-0.953396 -0.301721  -3.00888
 0.973695 -0.227854  -3.00888
 -0.98828 -0.152649  -3.00888
  0.997066 -0.0765493   -3.00888
          -1 -1.22465e-16     -3.00888
 0.997066 0.0765493  -3.00888
-0.98828 0.152649 -3.00888
0.973695 0.227854 -3.00888
-0.953396  0.301721  -3.00888
0.927502 0.373817 -3.00888
-0.896166   0.44372  -3.00888
 0.85957 0.511019 -3.00888
-0.817929  0.575319  -3.00888
0.771489 0.636242 -3.00888
-0.720522  0.693433  -3.00888
0.665326 0.746553 -3.00888
-0.606225  0.795293  -3.00888
0.543568 0.839365 -3.00888
-0.47772 0.878512 -3.00888
0.409069 0.912504 -3.00888
-0.338017   0.94114  -3.00888
0.264982 0.964253 -3.00888
-0.190391  0.981708  -3.00888
0.114683 0.993402 -3.00888
-0.0383027   0.999266   -3.00888
0.0383027 -0.999266  -2.87616
-0.114683 -0.993402  -2.87616
 0.190391 -0.981708  -2.87616
-0.264982 -0.964253  -2.87616
0.338017 -0.94114 -2.87616
-0.409069 -0.912504  -2.87616
  0.47772 -0.878512  -2.87616
-0.543568 -0.839365  -2.87616
 0.606225 -0.795293  -2.87616
-0.665326 -0.746553  -2.87616
 0.720522 -0.693433  -2.87616
-0.771489 -0.636242  -2.87616
 0.817929 -0.575319  -2.87616
 -0.85957 -0.511019  -2.87616
0.896166 -0.44372 -2.87616
-0.927502 -0.373817  -2.87616
 0.953396 -0.301721  -2.87616
-0.973695 -0.227854  -2.87616
  0.98828 -0.152649  -2.87616
 -0.997066 -0.0765493   -2.87616
          1 2.77556e-17    -2.87616
-0.997066 0.0765493  -2.87616
 0.98828 0.152649 -2.87616
-0.973695  0.227854  -2.87616
0.953396 0.301721 -2.87616
-0.927502  0.373817  -2.87616
0.896166  0.44372 -2.87616
-0.85957 0.511019 -2.87616
0.817929 0.575319 -2.87616
-0.771489  0.636242  -2.87616
0.720522 0.693433 -2.87616
-0.665326  0.746553  -2.87616
0.606225 0.795293 -2.87616
-0.543568  0.839365  -2.87616
 0.47772 0.878512 -2.87616
-0.409069  0.912504  -2.87616
0.338017  0.94114 -2.87616
-0.264982  0.964253  -2.87616
0.190391 0.981708 -2.87616
-0.114683  0.993402  -2.87616
0.0383027  0.999266  -2.87616
-0.0383027  -0.999266   -2.74344
 0.114683 -0.993402  -2.74344
-0.190391 -0.981708  -2.74344
 0.264982 -0.964253  -2.74344
-0.338017  -0.94114  -2.74344
 0.409069 -0.912504  -2.74344
 -0.47772 -0.878512  -2.74344
 0.543568 -0.839365  -2.74344
-0.606225 -0.795293  -2.74344
 0.665326 -0.746553  -2.74344
-0.720522 -0.693433  -2.74344
 0.771489 -0.636242  -2.74344
-0.817929 -0.575319  -2.74344
  0.85957 -0.511019  -2.74344
-0.896166  -0.44372  -2.74344
 0.927502 -0.373817  -2.74344
-0.953396 -0.301721  -2.74344
 0.973695 -0.227854  -2.74344
 -0.98828 -0.152649  -2.74344
  0.997066 -0.0765493   -2.74344
          -1 -1.01064e-15     -2.74344
 0.997066 0.0765493  -2.74344
-0.98828 0.152649 -2.74344
0.973695 0.227854 -2.74344
-0.953396  0.301721  -2.74344
0.927502 0.373817 -2.74344
-0.896166   0.44372  -2.74344
 0.85957 0.511019 -2.74344
-0.817929  0.575319  -2.74344
0.771489 0.636242 -2.74344
-0.720522  0.693433  -2.74344
0.665326 0.746553 -2.74344
-0.606225  0.795293  -2.74344
0.543568 0.839365 -2.74344
-0.47772 0.878512 -2.74344
0.409069 0.912504 -2.74344
-0.338017   0.94114  -2.74344
0.264982 0.964253 -2.74344
-0.190391  0.981708  -2.74344
0.114683 0.993402 -2.74344
-0.0383027   0.999266   -2.74344
0.0383027 -0.999266  -2.61072
-0.114683 -0.993402  -2.61072
 0.190391 -0.981708  -2.61072
-0.264982 -0.964253  -2.61072
0.338017 -0.94114 -2.61072
-0.409069 -0.912504  -2.61072
  0.47772 -0.878512  -2.61072
-0.543568 -0.839365  -2.61072
 0.606225 -0.795293  -2.61072
-0.665326 -0.746553  -2.61072
 0.720522 -0.693433  -2.61072
-0.771489 -0.636242  -2.61072
 0.817929 -0.575319  -2.61072
 -0.85957 -0.511019  -2.61072
0.896166 -0.44372 -2.61072
-0.927502 -0.373817  -2.61072
 0.953396 -0.301721  -2.61072
-0.973695 -0.227854  -2.61072
  0.98828 -0.152649  -2.61072
 -0.997066 -0.0765493   -2.61072
          1 5.55112e-17    -2.61072
-0.997066 0.0765493  -2.61072
 0.98828 0.152649 -2.61072
-0.973695  0.227854  -2.61072
0.953396 0.301721 -2.61072
-0.927502  0.373817  -2.61072
0.896166  0.44372 -2.61072
-0.85957 0.511019 -2.61072
0.817929 0.575319 -2.61072
-0.771489  0.636242  -2.61072
0.720522 0.693433 -2.61072
-0.665326  0.746553  -2.61072
0.606225 0.795293 -2.61072
-0.543568  0.839365  -2.61072
 0.47772 0.878512 -2.61072
-0.409069  0.912504  -2.61072
0.338017  0.94114 -2.61072
-0.264982  0.964253  -2.61072
0.190391 0.981708 -2.61072
-0.114683  0.993402  -2.61072
0.0383027  0.999266  -2.61072
-0.0383027  -0.999266   -2.47801
 0.114683 -0.993402  -2.47801
-0.190391 -0.981708  -2.47801
 0.264982 -0.964253  -2.47801
-0.338017  -0.94114  -2.47801
 0.409069 -0.912504  -2.47801
 -0.47772 -0.878512  -2.47801
 0.543568 -0.839365  -2.47801
-0.606225 -0.795293  -2.47801
 0.665326 -0.746553  -2.47801
-0.720522 -0.693433  -2.47801
 0.771489 -0.636242  -2.47801
-0.817929 -0.575319  -2.47801
  0.85957 -0.511019  -2.47801
-0.896166  -0.44372  -2.47801
 0.927502 -0.373817  -2.47801
-0.953396 -0.301721  -2.47801
 0.973695 -0.227854  -2.47801
 -0.98828 -0.152649  -2.47801
  0.997066 -0.0765493   -2.47801
          -1 -5.66554e-16     -2.47801
 0.997066 0.0765493  -2.47801
-0.98828 0.152649 -2.47801
0.973695 0.227854 -2.47801
-0.953396  0.301721  -2.47801
0.927502 0.373817 -2.47801
-0.896166   0.44372  -2.47801
 0.85957 0.511019 -2.47801
-0.817929  0.575319  -2.47801
0.771489 0.636242 -2.47801
-0.720522  0.693433  -2.47801
0.665326 0.746553 -2.47801
-0.606225  0.795293  -2.47801
0.543568 0.839365 -2.47801
-0.47772 0.878512 -2.47801
0.409069 0.912504 -2.47801
-0.338017   0.94114  -2.47801
0.264982 0.964253 -2.47801
-0.190391  0.981708  -2.47801
0.114683 0.993402 -2.47801
-0.0383027   0.999266   -2.47801
0.0383027 -0.999266  -2.34529
-0.114683 -0.993402  -2.34529
 0.190391 -0.981708  -2.34529
-0.264982 -0.964253  -2.34529
0.338017 -0.94114 -2.34529
-0.409069 -0.912504  -2.34529
  0.47772 -0.878512  -2.34529
-0.543568 -0.839365  -2.34529
 0.606225 -0.795293  -2.34529
-0.665326 -0.746553  -2.34529
 0.720522 -0.693433  -2.34529
-0.771489 -0.636242  -2.34529
 0.817929 -0.575319  -2.34529
 -0.85957 -0.511019  -2.34529
0.896166 -0.44372 -2.34529
-0.927502 -0.373817  -2.34529
 0.953396 -0.301721  -2.34529
-0.973695 -0.227854  -2.34529
  0.98828 -0.152649  -2.34529
 -0.997066 -0.0765493   -2.34529
          1 1.11022e-16    -2.34529
-0.997066 0.0765493  -2.34529
 0.98828 0.152649 -2.34529
-0.973695  0.227854  -2.34529
0.953396 0.301721 -2.34529
-0.927502  0.373817  -2.34529
0.896166  0.44372 -2.34529
-0.85957 0.511019 -2.34529
0.817929 0.575319 -2.34529
-0.771489  0.636242  -2.34529
0.720522 0.693433 -2.34529
-0.665326  0.746553  -2.34529
0.606225 0.795293 -2.34529
-0.543568  0.839365  -2.34529
 0.47772 0.878512 -2.34529
-0.409069  0.912504  -2.34529
0.338017  0.94114 -2.34529
-0.264982  0.964253  -2.34529
0.190391 0.981708 -2.34529
-0.114683  0.993402  -2.34529
0.0383027  0.999266  -2.34529
-0.0383027  -0.999266   -2.21257
 0.114683 -0.993402  -2.21257
-0.190391 -0.981708  -2.21257
 0.264982 -0.964253  -2.21257
-0.338017  -0.94114  -2.21257
 0.409069 -0.912504  -2.21257
 -0.47772 -0.878512  -2.21257
 0.543568 -0.839365  -2.21257
-0.606225 -0.795293  -2.21257
 0.665326 -0.746553  -2.21257
-0.720522 -0.693433  -2.21257
 0.771489 -0.636242  -2.21257
-0.817929 -0.575319  -2.21257
  0.85957 -0.511019  -2.21257
-0.896166  -0.44372  -2.21257
 0.927502 -0.373817  -2.21257
-0.953396 -0.301721  -2.21257
 0.973695 -0.227854  -2.21257
 -0.98828 -0.152649  -2.21257
  0.997066 -0.0765493   -2.21257
          -1 -5.66554e-16     -2.21257
 0.997066 0.0765493  -2.21257
-0.98828 0.152649 -2.21257
0.973695 0.227854 -2.21257
-0.953396  0.301721  -2.21257
0.927502 0.373817 -2.21257
-0.896166   0.44372  -2.21257
 0.85957 0.511019 -2.21257
-0.817929  0.575319  -2.21257
0.771489 0.636242 -2.21257
-0.720522  0.693433  -2.21257
0.665326 0.746553 -2.21257
-0.606225  0.795293  -2.21257
0.543568 0.839365 -2.21257
-0.47772 0.878512 -2.21257
0.409069 0.912504 -2.21257
-0.338017   0.94114  -2.21257
0.264982 0.964253 -2.21257
-0.190391  0.981708  -2.21257
0.114683 0.993402 -2.21257
-0.0383027   0.999266   -2.21257
0.0383027 -0.999266  -2.07986
-0.114683 -0.993402  -2.07986
 0.190391 -0.981708  -2.07986
-0.264982 -0.964253  -2.07986
0.338017 -0.94114 -2.07986
-0.409069 -0.912504  -2.07986
  0.47772 -0.878512  -2.07986
-0.543568 -0.839365  -2.07986
[...]
POINT_DATA 2009
SCALARS Field double
LOOKUP_TABLE default
0.295947
-0.629823
0.91255
-0.897674
0.575973
-0.227879
-0.362277
0.679976
-0.922071
0.877531
-0.518743
0.158474
0.426481
-0.726138
0.926181
-0.852238
0.458468
-0.0881381
-0.488182
0.768038
-0.924858
0.821944
-0.395502
0.0172846
0.547017
-0.805432
0.918107
-0.786827
0.330215
0.0536699
-0.602641
0.838099
-0.905969
0.747092
-0.262989
-0.12431
0.654729
-0.865847
0.888515
-0.702973
0.194219
-0.0743243
0.775705
-0.846708
0.815457
-0.734667
0.00341852
0.144793
-0.812191
0.87299
-0.779421
0.689316
0.0675073
-0.214413
0.843911
-0.894149
0.73881
-0.63992
-0.138037
0.282774
-0.87068
0.910062
-0.693864
0.586769
0.207756
-0.349475
0.892338
-0.920635
0.644846
-0.530174
-0.276255
0.414124
-0.908761
0.925805
-0.592043
0.470466
0.343133
-0.476343
0.919851
-0.925543
0.535765
-0.407997
0.513065
-0.432539
0.922703
-0.926291
0.36856
-0.452516
-0.570603
0.493979
-0.913701
0.924443
-0.302417
0.38931
0.624792
-0.552519
0.899337
-0.917171
0.234499
-0.323818
-0.675315
0.607817
-0.879697
0.904518
-0.165205
0.256426
0.721873
-0.659547
0.854894
-0.886557
0.0949416
-0.187529
-0.764195
0.707407
-0.825075
0.863393
-0.02412
0.117531
0.802033
-0.751114
0.790414
-0.835163
-0.0468432
0.167209
0.880333
-0.720595
0.673919
-0.855676
-0.236469
-0.0969667
-0.899823
0.763043
-0.623287
0.825998
0.304341
0.0261555
0.914034
-0.801012
0.568998
-0.791473
-0.370427
0.0448094
-0.922881
0.834281
-0.511368
0.752304
0.434339
-0.115511
0.926313
-0.862653
0.450737
-0.708719
-0.4957
0.185535
-0.92431
0.885964
-0.387461
0.660976
0.554152
-0.254469
0.916883
-0.904076
0.32191
-0.609352
0.695212
-0.205771
0.869982
-0.891789
0.136023
-0.646306
-0.740037
0.274311
-0.84307
0.908363
-0.0654762
0.593607
0.780519
-0.341242
0.81121
-0.919608
-0.00545451
-0.537425
-0.816421
0.406168
-0.77459
0.925456
0.0763538
0.478088
0.847532
-0.468711
0.733424
-0.925873
-0.146805
-0.415945
-0.873669
0.528502
-0.687954
0.920859
0.216394
0.35136
0.894679
-0.585192
0.638446
-0.91044
-0.284712
0.397343
0.924971
-0.545372
0.48645
-0.918376
-0.460237
-0.332116
-0.926139
0.601093
-0.424673
0.906391
0.520429
0.26494
0.921873
-0.653287
0.360403
-0.889089
-0.577566
-0.19621
-0.912197
0.701646
-0.294017
0.866569
0.631314
0.126327
0.897168
-0.745887
0.225904
-0.838964
-0.681357
-0.0557027
-0.876876
0.78575
-0.156467
0.806436
0.727401
-0.0152487
0.851438
-0.821003
0.0861106
-0.769175
0.829977
0.0350239
0.757976
-0.796518
-0.105787
-0.796047
-0.859036
0.0359447
-0.714987
0.830386
0.175928
0.757446
0.883054
-0.106702
0.6678
-0.859381
-0.245037
-0.714401
-0.90189
0.176833
-0.616695
0.883332
0.312708
0.667162
0.915434
-0.245926
0.56197
-0.9021
-0.378543
-0.616007
-0.923607
0.313575
-0.503946
0.915575
0.442156
0.561237
0.92636
-0.379384
0.442965
-0.923678
-0.503173
0.600392
0.906581
-0.332977
0.265823
-0.918496
-0.652633
-0.544627
-0.889347
0.398175
-0.19711
0.925021
0.701044
0.485666
0.866894
-0.461036
0.12724
-0.926119
-0.74534
-0.423854
-0.839354
0.521191
-0.0566224
0.921782
0.785262
0.359553
0.806889
-0.578287
-0.0143276
-0.912036
-0.820576
-0.293143
-0.769688
0.631988
0.0851933
0.896939
0.851074
0.225011
0.727971
-0.681981
-0.155559
-0.876579
0.908182
0.273431
0.594315
-0.646966
-0.340385
-0.891539
-0.919496
-0.204873
-0.538175
0.69582
0.40534
0.869665
0.925414
0.135112
0.478877
-0.740591
-0.467916
-0.842687
-0.925903
-0.0645573
-0.416768
0.781015
0.527745
0.810765
0.920958
-0.00637621
0.352212
-0.816856
-0.584477
-0.774084
-0.91061
0.0772719
-0.285589
0.847903
0.637779
0.732861
0.894918
-0.147714
0.217289
-0.873975
-0.687337
0.76252
0.826415
-0.0978831
0.0270765
-0.856029
-0.800548
-0.720016
-0.791952
0.168115
0.0438892
0.880619
0.83388
0.673287
0.752841
-0.237359
-0.114597
-0.900042
-0.862317
-0.622606
-0.709312
0.305211
0.184632
0.914183
0.885695
0.56827
0.661621
-0.371271
-0.253583
-0.92296
-0.903875
-0.5106
-0.610046
0.435152
0.321046
0.926322
0.916751
0.449932
0.55489
-0.496478
-0.386624
-0.924248
0.924502
0.493199
0.390145
-0.453319
-0.551779
-0.926279
-0.9173
-0.431724
-0.324681
0.513832
0.607122
0.922621
0.904716
0.367715
0.257311
-0.571328
-0.6589
-0.913548
-0.886824
-0.301546
-0.188431
0.625472
0.706812
0.899116
0.863727
0.233608
0.118445
-0.675945
-0.750574
-0.879407
-0.835562
-0.164299
-0.0477633
0.72245
0.789933
0.854539
0.802493
0.0940249
-0.0231989
-0.764715
-0.824655
0.872681
0.689931
0.143884
-0.213516
-0.735227
-0.893908
-0.846334
-0.640586
-0.073406
0.281896
0.776208
0.90989
0.81502
0.587482
0.00249732
-0.348621
-0.812634
-0.920532
-0.778922
-0.530929
0.0684261
0.4133
0.844291
0.925773
0.738254
0.47126
-0.138948
-0.475552
-0.870993
-0.925582
-0.693254
-0.408824
0.208654
0.535013
0.892585
0.919959
0.644184
0.343989
-0.277135
-0.591334
-0.908939
0.877825
0.67935
0.159381
-0.228772
-0.725566
-0.897901
-0.852599
-0.629147
-0.0890551
0.29682
0.767523
0.912707
0.822369
0.575251
0.018206
-0.363125
-0.804976
-0.922159
-0.787313
-0.51798
0.0527501
0.427299
0.837706
0.926199
0.747637
0.457668
-0.123397
-0.488964
-0.865519
-0.924805
-0.703573
-0.394669
0.193318
0.54776
0.888254
0.917984
0.65538
0.329354
-0.262105
-0.603341
-0.905776
0.923375
0.506426
0.375842
-0.439555
-0.564318
-0.926354
-0.914977
-0.445561
-0.309922
0.500687
0.618899
0.923898
0.90121
0.38208
0.242184
-0.558881
-0.669847
-0.91602
-0.882156
-0.316356
-0.173024
0.613795
0.716864
0.902768
0.857925
0.248776
0.102848
-0.665107
-0.759673
-0.884219
-0.82866
-0.179735
-0.0320684
0.712514
0.798024
0.86048
0.794531
0.109639
-0.0388997
-0.75574
-0.831692
0.77133
0.8192
-0.0822478
0.0113704
-0.849903
-0.808337
-0.729796
-0.783689
0.152642
0.0595742
0.875617
0.840601
0.683979
0.74358
-0.222141
-0.130169
-0.896195
-0.867932
-0.634147
-0.699107
0.290336
0.199999
0.911513
0.89017
0.580594
0.650531
-0.356826
-0.268656
-0.921484
-0.907185
-0.523633
-0.598137
0.421222
0.335735
0.926047
0.918876
0.463599
0.542232
-0.483145
-0.400843
-0.925176
0.911148
0.288401
0.58218
-0.635631
-0.354945
-0.895678
-0.921272
-0.220164
-0.525312
0.68535
0.419407
0.874951
0.925991
0.150633
0.465361
-0.731048
-0.481406
-0.84909
-0.925276
-0.0802189
-0.402678
0.772456
0.54058
0.818247
0.919132
0.00933358
0.337632
-0.80933
-0.596581
-0.782601
-0.907595
0.0616066
-0.270604
0.841455
0.649079
0.742364
0.890732
-0.132185
0.201987
-0.868642
-0.697769
0.612268
0.903223
-0.31827
0.250737
-0.916322
-0.663687
-0.557256
-0.884823
0.383934
-0.181732
0.924044
0.711211
0.498973
0.861233
-0.447345
0.111661
-0.926344
-0.754561
-0.437761
-0.832587
0.50813
-0.0409344
0.923209
0.793482
0.373979
0.799057
-0.565932
-0.0300328
-0.914657
-0.827747
-0.308002
-0.760837
0.620413
0.100824
0.900737
0.857155
0.240217
0.718152
-0.671252
-0.171023
-0.881533
0.836834
0.0507167
0.748837
-0.788384
-0.121378
-0.803966
-0.864791
0.0202424
-0.704896
0.823304
0.191326
0.766381
0.887674
-0.091082
0.656818
-0.853393
-0.260151
-0.724298
-0.905347
0.161387
-0.604885
0.878474
0.32745
0.677964
0.917708
-0.230745
0.549401
-0.898399
-0.392826
-0.627651
-0.924684
0.298748
-0.490693
0.913054
0.455896
0.573654
0.926235
-0.364998
0.429105
-0.922351
-0.51629
0.411476
0.925698
-0.532596
0.473011
-0.920301
-0.473804
-0.346733
-0.925663
0.589055
-0.410651
0.909505
0.53335
0.279956
0.920196
-0.642056
0.345879
-0.893372
-0.589765
-0.211535
-0.90933
0.691289
-0.279077
0.871996
0.642719
0.141872
0.893128
-0.736464
0.210637
-0.845504
-0.691901
-0.0713756
-0.871685
0.777318
-0.140961
0.814049
0.737023
0.000460459
0.845127
-0.81361
0.070457
-0.777818
0.705493
-0.190425
0.864461
-0.88741
0.120464
-0.657467
-0.749379
0.259268
-0.836439
0.905152
-0.049797
0.605582
0.788867
-0.326588
0.803509
-0.917582
-0.0211629
-0.550143
-0.823726
0.391991
-0.765863
0.924629
0.0919985
0.491474
0.853751
-0.455094
0.723723
-0.92625
-0.162294
-0.429921
-0.878765
0.515525
-0.677335
0.922435
0.231637
0.365844
0.898624
-0.57293
0.626973
-0.913209
-0.29962
0.182636
0.885096
-0.71062
0.663044
-0.861571
-0.251624
-0.112576
-0.903427
0.754026
-0.611577
0.832991
0.319134
0.0418545
0.916456
-0.793007
0.55652
-0.799522
-0.384772
0.029112
-0.924109
0.827333
-0.498196
0.761362
0.448151
-0.0999078
0.926338
-0.856805
0.436949
-0.718733
-0.5089
0.170117
-0.923133
0.881249
-0.373136
0.671886
0.566661
-0.239327
0.91451
-0.900521
0.307133
-0.621096
0.526071
-0.418585
0.921176
-0.925965
0.354095
-0.466158
-0.582896
0.480618
-0.910981
0.92532
-0.287525
0.403508
0.6363
-0.539831
0.895442
-0.919246
0.219268
-0.33849
-0.68597
0.595875
-0.874648
0.907779
-0.149724
0.271485
0.731614
-0.648422
0.848721
-0.890984
0.0793011
-0.202886
-0.772964
0.697163
-0.817815
0.868962
-0.00841285
0.133097
0.809777
-0.741812
0.782108
-0.841839
-0.0625255
-0.0586548
0.78418
-0.840214
0.807887
-0.744129
-0.012291
0.129256
-0.819629
0.867609
-0.770819
0.699711
0.0831651
-0.1991
0.850268
-0.889915
0.729228
-0.651186
-0.153551
0.267774
-0.875918
0.906998
-0.683357
0.59884
0.223035
-0.334876
0.896428
-0.918759
0.633476
-0.542979
-0.29121
0.400013
-0.911677
0.925129
-0.579877
0.483931
0.357675
-0.462801
0.921577
-0.92607
0.522873
-0.422042
0.31079
-0.618213
0.915121
-0.901423
0.563588
-0.243073
-0.376683
0.66921
-0.923448
0.882437
-0.505654
0.173929
0.440365
-0.716279
0.926357
-0.858272
0.444753
-0.103763
-0.501462
0.759145
-0.92383
0.829071
-0.38124
0.0329887
0.559616
-0.797556
0.915883
-0.795004
0.315491
0.0379796
-0.614485
0.831287
-0.902561
0.756273
-0.247889
-0.108724
0.665747
-0.860139
0.883943
-0.713102
0.178831
-0.295947
0.629823
-0.912549
0.897674
-0.575973
0.227879
0.362278
-0.679976
0.922071
-0.87753
0.518743
-0.158474
-0.426481
0.726138
-0.926181
0.852238
-0.458468
0.0881381
0.488182
-0.768038
0.924857
-0.821944
0.395502
-0.0172849
-0.547017
0.805432
-0.918107
0.786827
-0.330215
-0.0536696
0.602642
-0.838098
0.905969
-0.747092
0.262989
0.124309
-0.654729
0.865847
-0.888515
0.702974
-0.194219
0.074324
-0.775705
0.846707
-0.815457
0.734666
-0.00341802
-0.144794
0.812192
-0.87299
0.779421
-0.689316
-0.0675073
0.214413
-0.843911
0.89415
-0.73881
0.639921
0.138037
-0.282774
0.870679
-0.910062
0.693864
-0.586769
-0.207756
0.349474
-0.892338
0.920635
-0.644846
0.530174
0.276256
-0.414124
0.908761
-0.925805
0.592043
-0.470466
-0.343134
0.476343
-0.919851
0.925544
-0.535765
0.407997
-0.513065
0.432538
-0.922703
0.92629
-0.368559
0.452515
0.570604
-0.493979
0.913701
-0.924443
0.302417
-0.38931
-0.624792
0.552519
-0.899337
0.917171
-0.2345
0.323819
0.675314
-0.607817
0.879696
-0.904518
0.165205
-0.256427
-0.721873
0.659547
-0.854894
0.886557
-0.094941
0.187529
0.764195
-0.707406
0.825075
-0.863393
0.0241194
-0.117531
-0.802033
0.751114
-0.790414
0.835164
0.0468432
-0.167209
-0.880333
0.720595
-0.673919
0.855676
0.236469
0.0969668
0.899823
-0.763042
0.623287
-0.825999
-0.304342
-0.0261556
-0.914034
0.801012
-0.568998
0.791474
0.370427
-0.0448091
0.922881
-0.83428
0.511368
-0.752304
-0.434339
0.115511
-0.926313
0.862653
-0.450737
0.708719
0.4957
-0.185535
0.92431
-0.885964
0.38746
-0.660976
-0.554153
0.254469
-0.916883
0.904076
-0.32191
0.609352
-0.695212
0.205771
-0.869982
0.891789
-0.136023
0.646307
0.740037
-0.274311
0.843069
-0.908363
0.0654758
-0.593608
-0.78052
0.341241
-0.81121
0.919607
0.00545489
0.537425
0.816421
-0.406168
0.77459
-0.925456
-0.0763539
-0.478088
-0.847532
0.468711
-0.733424
0.925873
0.146805
0.415944
0.873669
-0.528502
0.687954
-0.920859
-0.216394
-0.35136
-0.894679
0.585191
-0.638446
0.91044
0.284712
-0.397343
-0.924971
0.545372
-0.48645
0.918376
0.460237
0.332117
0.926139
-0.601093
0.424672
-0.906392
-0.520429
-0.264941
-0.921873
0.653286
-0.360402
0.889089
0.577567
0.19621
0.912197
-0.701645
0.294017
-0.866569
-0.631315
-0.126327
-0.897169
0.745887
-0.225905
0.838964
0.681357
0.0557027
0.876876
-0.785751
0.156467
-0.806436
-0.7274
0.0152482
-0.851437
0.821003
-0.0861102
0.769175
-0.829977
-0.0350239
-0.757977
0.796519
0.105787
0.796048
0.859036
-0.0359441
0.714986
-0.830386
-0.175928
-0.757447
-0.883054
0.106701
-0.6678
0.85938
0.245038
0.7144
0.901891
-0.176833
0.616695
-0.883332
-0.312708
-0.667161
-0.915435
0.245926
-0.56197
0.9021
0.378543
0.616007
0.923607
-0.313575
0.503946
-0.915575
-0.442155
-0.561238
-0.92636
0.379383
-0.442965
0.923677
0.503173
-0.600392
-0.906581
0.332977
-0.265824
0.918496
0.652633
0.544628
0.889347
-0.398175
0.19711
-0.925021
-0.701044
-0.485666
-0.866894
0.461036
-0.12724
0.926119
0.74534
0.423854
0.839354
-0.521191
0.0566223
-0.921782
-0.785262
-0.359553
-0.806889
0.578287
0.0143274
0.912036
0.820576
0.293143
0.769688
-0.631988
-0.0851932
-0.896939
-0.851074
-0.225011
-0.72797
0.681981
0.155559
0.876578
-0.908182
-0.273431
-0.594315
0.646966
0.340385
0.891539
0.919496
0.204873
0.538175
-0.69582
-0.40534
-0.869665
-0.925414
-0.135112
-0.478877
0.740591
0.467916
0.842687
0.925903
0.0645573
0.416767
-0.781015
-0.527746
-0.810765
-0.920958
0.00637594
-0.352212
0.816856
0.584477
0.774084
0.91061
-0.0772716
0.285589
-0.847903
-0.637779
-0.732861
-0.894918
0.147714
-0.217289
0.873975
0.687337
-0.76252
-0.826415
0.0978827
-0.0270763
0.856028
0.800549
0.720016
0.791952
-0.168115
-0.0438888
-0.880619
-0.83388
-0.673286
-0.752841
0.23736
0.114597
0.900042
0.862317
0.622606
0.709312
-0.305211
-0.184632
-0.914184
-0.885695
-0.568271
-0.66162
0.371271
0.253583
0.92296
0.903875
0.5106
0.610046
-0.435152
-0.321046
-0.926322
-0.916751
-0.449932
-0.554891
0.496478
0.386624
0.924248
-0.924502
-0.493199
-0.390145
0.453319
0.55178
0.926279
0.9173
0.431724
0.324681
-0.513832
-0.607121
-0.92262
-0.904716
-0.367714
-0.257312
0.571329
0.6589
0.913549
0.886823
0.301546
0.188431
-0.625472
-0.706811
-0.899116
-0.863727
-0.233608
-0.118445
0.675944
0.750575
0.879407
0.835562
0.164299
0.0477631
-0.72245
-0.789933
-0.854539
-0.802494
-0.0940246
0.0231987
0.764716
0.824655
-0.872681
-0.689931
-0.143883
0.213517
0.735227
0.893908
0.846333
0.640586
0.0734057
-0.281896
-0.776208
-0.90989
-0.815019
-0.587481
-0.00249691
0.348621
0.812634
0.920532
0.778922
0.530928
-0.0684263
-0.4133
-0.844291
-0.925773
-0.738254
-0.471259
0.138948
0.475552
0.870993
0.925582
0.693253
0.408824
-0.208654
-0.535013
-0.892585
-0.919959
-0.644184
-0.343989
0.277135
0.591334
0.908939
-0.877825
-0.679349
-0.159381
0.228772
0.725565
0.897901
0.852598
0.629147
0.0890547
-0.29682
-0.767523
-0.912707
-0.822369
-0.575251
-0.0182058
0.363125
0.804976
0.922159
0.787313
0.51798
-0.0527501
-0.427299
-0.837706
-0.926199
-0.747637
-0.457667
0.123397
0.488965
0.865519
0.924804
0.703573
0.394669
-0.193318
-0.54776
-0.888254
-0.917984
-0.65538
-0.329354
0.262106
0.603341
0.905776
-0.923374
-0.506425
-0.375841
0.439554
0.564318
0.926354
0.914977
0.44556
0.309922
-0.500687
-0.618899
-0.923898
-0.901211
-0.382079
-0.242184
0.558882
0.669847
0.916021
0.882156
0.316357
0.173024
-0.613795
-0.716863
-0.902768
-0.857924
-0.248776
-0.102847
0.665106
0.759673
0.884218
0.828659
0.179735
0.0320678
-0.712514
-0.798025
-0.86048
-0.794531
-0.109639
0.0388997
0.75574
0.831693
-0.77133
-0.819199
0.0822476
-0.0113699
0.849902
0.808337
0.729796
0.783689
-0.152642
-0.0595742
-0.875617
-0.840601
-0.683979
-0.74358
0.222141
0.130169
0.896195
0.867932
0.634148
0.699107
-0.290335
-0.199999
-0.911513
-0.89017
-0.580594
-0.65053
0.356826
0.268656
0.921483
0.907185
0.523633
0.598137
-0.421222
-0.335735
-0.926046
-0.918876
-0.463599
-0.542232
0.483145
0.400843
0.925175
-0.911148
-0.288401
-0.58218
0.63563
0.354946
0.895677
0.921272
0.220163
0.525312
-0.68535
-0.419407
-0.874951
-0.925991
-0.150633
-0.465361
0.731048
0.481406
0.84909
0.925276
0.080219
0.402678
-0.772456
-0.54058
-0.818247
-0.919132
-0.00933385
-0.337632
0.80933
0.59658
0.782601
0.907595
-0.0616065
0.270604
-0.841455
-0.649079
-0.742363
-0.890732
0.132185
-0.201987
0.868642
0.697769
-0.612268
-0.903223
0.31827
-0.250737
0.916322
0.663687
0.557256
0.884823
-0.383934
0.181733
-0.924044
-0.711211
-0.498973
-0.861232
0.447344
-0.111661
0.926344
0.754561
0.437761
0.832587
-0.508129
0.0409343
-0.923209
-0.793482
-0.373979
-0.799057
0.565932
0.0300326
0.914656
0.827747
0.308002
0.760837
-0.620412
-0.100823
-0.900737
-0.857154
-0.240217
-0.718151
0.671252
0.171022
0.881532
-0.836834
-0.0507168
-0.748837
0.788384
0.121378
0.803967
0.864791
-0.0202418
0.704896
-0.823304
-0.191326
-0.766381
-0.887673
0.0910816
-0.656818
0.853392
0.260152
0.724297
0.905347
-0.161387
0.604884
-0.878473
-0.32745
-0.677963
-0.917709
0.230745
-0.549402
0.898399
0.392825
0.627651
0.924684
-0.298748
0.490693
-0.913054
-0.455896
-0.573654
-0.926235
0.364998
-0.429105
0.92235
0.51629
-0.411476
-0.925698
0.532596
-0.473012
0.920302
0.473803
0.346734
0.925663
-0.589054
0.410651
-0.909505
-0.533349
-0.279956
-0.920196
0.642055
-0.345879
0.893371
0.589765
0.211534
0.90933
-0.691288
0.279077
-0.871996
-0.64272
-0.141871
-0.893128
0.736464
-0.210638
0.845504
0.691901
0.0713756
0.871685
-0.777317
0.140961
-0.814049
-0.737022
-0.000460722
-0.845127
0.813609
-0.0704571
0.777818
-0.705493
0.190425
-0.864461
0.88741
-0.120464
0.657467
0.749379
-0.259267
0.836439
-0.905152
0.0497969
-0.605582
-0.788867
0.326588
-0.803508
0.917582
0.0211631
0.550142
0.823726
-0.391991
0.765863
-0.924628
-0.0919985
-0.491474
-0.853751
0.455094
-0.723723
0.92625
0.162294
0.429921
0.878765
-0.515525
0.677336
-0.922435
-0.231637
-0.365844
-0.898623
0.57293
-0.626973
0.913209
0.29962
-0.182636
-0.885096
0.71062
-0.663044
0.861571
0.251624
0.112576
0.903427
-0.754026
0.611577
-0.832991
-0.319135
-0.0418546
-0.916457
0.793007
-0.55652
0.799522
0.384772
-0.0291119
0.924109
-0.827333
0.498197
-0.761361
-0.448151
0.0999078
-0.926338
0.856805
-0.436949
0.718733
0.508899
-0.170117
0.923133
-0.881249
0.373136
-0.671886
-0.566661
0.239328
-0.91451
0.900522
-0.307133
0.621096
-0.52607
0.418585
-0.921175
0.925964
-0.354094
0.466157
0.582896
-0.480619
0.910981
-0.92532
0.287525
-0.403508
-0.6363
0.539832
-0.895442
0.919247
-0.219269
0.33849
0.68597
-0.595875
0.874648
-0.907779
0.149725
-0.271485
-0.731613
0.648422
-0.848721
0.890984
-0.0793009
0.202886
0.772964
-0.697163
0.817814
-0.868961
0.00841239
-0.133096
-0.809778
0.741812
-0.782108
0.84184
0.0625256
0.058655
-0.78418
0.840214
-0.807887
0.744129
0.0122913
-0.129257
0.819629
-0.86761
0.770819
-0.699711
-0.0831653
0.1991
-0.850268
0.889915
-0.729228
0.651187
0.153551
-0.267774
0.875918
-0.906998
0.683357
-0.59884
-0.223035
0.334876
-0.896427
0.918758
-0.633475
0.542979
0.29121
-0.400013
0.911677
-0.925129
0.579876
-0.483931
-0.357676
0.462801
-0.921577
0.92607
-0.522873
0.422042
-0.31079
0.618213
-0.915121
0.901423
-0.563587
0.243073
0.376683
-0.66921
0.923448
-0.882437
0.505654
-0.173928
-0.440365
0.71628
-0.926357
0.858272
-0.444753
0.103763
0.501462
-0.759146
0.92383
-0.829071
0.38124
-0.0329889
-0.559616
0.797556
-0.915883
0.795004
-0.31549
-0.0379794
0.614485
-0.831287
0.902561
-0.756273
0.247888
0.108724
-0.665747
0.860139
-0.883943
0.713103
-0.178831
0.295947
-0.629823
0.91255
-0.897674
0.575973
-0.227879
-0.362277
0.679976
-0.922071
0.877531
-0.518743
0.158474
0.426481
-0.726138
0.926181
-0.852238
0.458468
-0.0881381
-0.488182
0.768038
-0.924858
0.821944
-0.395502
0.0172846
0.547017
-0.805432
0.918107
-0.786827
0.330215
0.0536699
-0.602641
0.838099
-0.905969
0.747092
-0.262989
-0.12431
0.654729
-0.865847
0.888515
-0.702973
0.194219
