# vtk DataFile Version 3.1
vtk output
ASCII
DATASET POLYDATA
POINTS 2009 FLOAT
0.0383027 -0.999266  -3.14159
-0.114683 -0.993402  -3.14159
 0.190391 -0.981708  -3.14159
-0.264982 -0.964253  -3.14159
0.338017 -0.94114 -3.14159
-0.409069 -0.912504  -3.14159
  0.47772 -0.878512  -3.14159
-0.543568 -0.839365  -3.14159
 0.606225 -0.795293  -3.14159
-0.665326 -0.746553  -3.14159
 0.720522 -0.693433  -3.14159
-0.771489 -0.636242  -3.14159
 0.817929 -0.575319  -3.14159
 -0.85957 -0.511019  -3.14159
0.896166 -0.44372 -3.14159
-0.927502 -0.373817  -3.14159
 0.953396 -0.301721  -3.14159
-0.973695 -0.227854  -3.14159
  0.98828 -0.152649  -3.14159
 -0.997066 -0.0765493   -3.14159
       1        0 -3.14159
-0.997066 0.0765493  -3.14159
 0.98828 0.152649 -3.14159
-0.973695  0.227854  -3.14159
0.953396 0.301721 -3.14159
-0.927502  0.373817  -3.14159
0.896166  0.44372 -3.14159
-0.85957 0.511019 -3.14159
0.817929 0.575319 -3.14159
-0.771489  0.636242  -3.14159
0.720522 0.693433 -3.14159
-0.665326  0.746553  -3.14159
0.606225 0.795293 -3.14159
-0.543568  0.839365  -3.14159
 0.47772 0.878512 -3.14159
-0.409069  0.912504  -3.14159
0.338017  0.94114 -3.14159
-0.264982  0.964253  -3.14159
0.190391 0.981708 -3.14159
-0.114683  0.993402  -3.14159
0.0383027  0.999266  -3.14159
-0.0383027  -0.999266   -3.00888
 0.114683 -0.993402  -3.00888
-0.190391 -0.981708  -3.00888
 0.264982 -0.964253  -3.00888
-0.338017  -0.94114  -3.00888
 0.409069 -0.912504  -3.00888
 -0.47772 -0.878512  -3.00888
 0.543568 -0.839365  -3.00888
-0.606225 -0.795293  -3.00888
 0.665326 -0.746553  -3.00888
-0.720522 -0.693433  -3.00888
 0.771489 -0.636242  -3.00888
-0.817929 -0.575319  -3.00888
  0.85957 -0.511019  -3.00888
-0.896166  -0.44372  -3.00888
 0.927502 -0.373817  -3.00888
-0.953396 -0.301721  -3.00888
 0.973695 -0.227854  -3.00888
 -0.98828 -0.152649  -3.00888
  0.997066 -0.0765493   -3.00888
          -1 -1.22465e-16     -3.00888
 0.997066 0.0765493  -3.00888
-0.98828 0.152649 -3.00888
0.973695 0.227854 -3.00888
-0.953396  0.301721  -3.00888
0.927502 0.373817 -3.00888
-0.896166   0.44372  -3.00888
 0.85957 0.511019 -3.00888
-0.817929  0.575319  -3.00888
0.771489 0.636242 -3.00888
-0.720522  0.693433  -3.00888
0.665326 0.746553 -3.00888
-0.606225  0.795293  -3.00888
0.543568 0.839365 -3.00888
-0.47772 0.878512 -3.00888
0.409069 0.912504 -3.00888
-0.338017   0.94114  -3.00888
0.264982 0.964253 -3.00888
-0.190391  0.981708  -3.00888
0.114683 0.993402 -3.00888
-0.0383027   0.999266   -3.00888
0.0383027 -0.999266  -2.87616
-0.114683 -0.993402  -2.87616
 0.190391 -0.981708  -2.87616
-0.264982 -0.964253  -2.87616
0.338017 -0.94114 -2.87616
-0.409069 -0.912504  -2.87616
  0.47772 -0.878512  -2.87616
-0.543568 -0.839365  -2.87616
 0.606225 -0.795293  -2.87616
-0.665326 -0.746553  -2.87616
 0.720522 -0.693433  -2.87616
-0.771489 -0.636242  -2.87616
 0.817929 -0.575319  -2.87616
 -0.85957 -0.511019  -2.87616
0.896166 -0.44372 -2.87616
-0.927502 -0.373817  -2.87616
 0.953396 -0.301721  -2.87616
-0.973695 -0.227854  -2.87616
  0.98828 -0.152649  -2.87616
 -0.997066 -0.0765493   -2.87616
          1 2.77556e-17    -2.87616
-0.997066 0.0765493  -2.87616
 0.98828 0.152649 -2.87616
-0.973695  0.227854  -2.87616
0.953396 0.301721 -2.87616
-0.927502  0.373817  -2.87616
0.896166  0.44372 -2.87616
-0.85957 0.511019 -2.87616
0.817929 0.575319 -2.87616
-0.771489  0.636242  -2.87616
0.720522 0.693433 -2.87616
-0.665326  0.746553  -2.87616
0.606225 0.795293 -2.87616
-0.543568  0.839365  -2.87616
 0.47772 0.878512 -2.87616
-0.409069  0.912504  -2.87616
0.338017  0.94114 -2.87616
-0.264982  0.964253  -2.87616
0.190391 0.981708 -2.87616
-0.114683  0.993402  -2.87616
0.0383027  0.999266  -2.87616
-0.0383027  -0.999266   -2.74344
 0.114683 -0.993402  -2.74344
-0.190391 -0.981708  -2.74344
 0.264982 -0.964253  -2.74344
-0.338017  -0.94114  -2.74344
 0.409069 -0.912504  -2.74344
 -0.47772 -0.878512  -2.74344
 0.543568 -0.839365  -2.74344
-0.606225 -0.795293  -2.74344
 0.665326 -0.746553  -2.74344
-0.720522 -0.693433  -2.74344
 0.771489 -0.636242  -2.74344
-0.817929 -0.575319  -2.74344
  0.85957 -0.511019  -2.74344
-0.896166  -0.44372  -2.74344
 0.927502 -0.373817  -2.74344
-0.953396 -0.301721  -2.74344
 0.973695 -0.227854  -2.74344
 -0.98828 -0.152649  -2.74344
  0.997066 -0.0765493   -2.74344
          -1 -1.01064e-15     -2.74344
 0.997066 0.0765493  -2.74344
-0.98828 0.152649 -2.74344
0.973695 0.227854 -2.74344
-0.953396  0.301721  -2.74344
0.927502 0.373817 -2.74344
-0.896166   0.44372  -2.74344
 0.85957 0.511019 -2.74344
-0.817929  0.575319  -2.74344
0.771489 0.636242 -2.74344
-0.720522  0.693433  -2.74344
0.665326 0.746553 -2.74344
-0.606225  0.795293  -2.74344
0.543568 0.839365 -2.74344
-0.47772 0.878512 -2.74344
0.409069 0.912504 -2.74344
-0.338017   0.94114  -2.74344
0.264982 0.964253 -2.74344
-0.190391  0.981708  -2.74344
0.114683 0.993402 -2.74344
-0.0383027   0.999266   -2.74344
0.0383027 -0.999266  -2.61072
-0.114683 -0.993402  -2.61072
 0.190391 -0.981708  -2.61072
-0.264982 -0.964253  -2.61072
0.338017 -0.94114 -2.61072
-0.409069 -0.912504  -2.61072
  0.47772 -0.878512  -2.61072
-0.543568 -0.839365  -2.61072
 0.606225 -0.795293  -2.61072
-0.665326 -0.746553  -2.61072
 0.720522 -0.693433  -2.61072
-0.771489 -0.636242  -2.61072
 0.817929 -0.575319  -2.61072
 -0.85957 -0.511019  -2.61072
0.896166 -0.44372 -2.61072
-0.927502 -0.373817  -2.61072
 0.953396 -0.301721  -2.61072
-0.973695 -0.227854  -2.61072
  0.98828 -0.152649  -2.61072
 -0.997066 -0.0765493   -2.61072
          1 5.55112e-17    -2.61072
-0.997066 0.0765493  -2.61072
 0.98828 0.152649 -2.61072
-0.973695  0.227854  -2.61072
0.953396 0.301721 -2.61072
-0.927502  0.373817  -2.61072
0.896166  0.44372 -2.61072
-0.85957 0.511019 -2.61072
0.817929 0.575319 -2.61072
-0.771489  0.636242  -2.61072
0.720522 0.693433 -2.61072
-0.665326  0.746553  -2.61072
0.606225 0.795293 -2.61072
-0.543568  0.839365  -2.61072
 0.47772 0.878512 -2.61072
-0.409069  0.912504  -2.61072
0.338017  0.94114 -2.61072
-0.264982  0.964253  -2.61072
0.190391 0.981708 -2.61072
-0.114683  0.993402  -2.61072
0.0383027  0.999266  -2.61072
-0.0383027  -0.999266   -2.47801
 0.114683 -0.993402  -2.47801
-0.190391 -0.981708  -2.47801
 0.264982 -0.964253  -2.47801
-0.338017  -0.94114  -2.47801
 0.409069 -0.912504  -2.47801
 -0.47772 -0.878512  -2.47801
 0.543568 -0.839365  -2.47801
-0.606225 -0.795293  -2.47801
 0.665326 -0.746553  -2.47801
-0.720522 -0.693433  -2.47801
 0.771489 -0.636242  -2.47801
-0.817929 -0.575319  -2.47801
  0.85957 -0.511019  -2.47801
-0.896166  -0.44372  -2.47801
 0.927502 -0.373817  -2.47801
-0.953396 -0.301721  -2.47801
 0.973695 -0.227854  -2.47801
 -0.98828 -0.152649  -2.47801
  0.997066 -0.0765493   -2.47801
          -1 -5.66554e-16     -2.47801
 0.997066 0.0765493  -2.47801
-0.98828 0.152649 -2.47801
0.973695 0.227854 -2.47801
-0.953396  0.301721  -2.47801
0.927502 0.373817 -2.47801
-0.896166   0.44372  -2.47801
 0.85957 0.511019 -2.47801
-0.817929  0.575319  -2.47801
0.771489 0.636242 -2.47801
-0.720522  0.693433  -2.47801
0.665326 0.746553 -2.47801
-0.606225  0.795293  -2.47801
0.543568 0.839365 -2.47801
-0.47772 0.878512 -2.47801
0.409069 0.912504 -2.47801
-0.338017   0.94114  -2.47801
0.264982 0.964253 -2.47801
-0.190391  0.981708  -2.47801
0.114683 0.993402 -2.47801
-0.0383027   0.999266   -2.47801
0.0383027 -0.999266  -2.34529
-0.114683 -0.993402  -2.34529
 0.190391 -0.981708  -2.34529
-0.264982 -0.964253  -2.34529
0.338017 -0.94114 -2.34529
-0.409069 -0.912504  -2.34529
  0.47772 -0.878512  -2.34529
-0.543568 -0.839365  -2.34529
 0.606225 -0.795293  -2.34529
-0.665326 -0.746553  -2.34529
 0.720522 -0.693433  -2.34529
-0.771489 -0.636242  -2.34529
 0.817929 -0.575319  -2.34529
 -0.85957 -0.511019  -2.34529
0.896166 -0.44372 -2.34529
-0.927502 -0.373817  -2.34529
 0.953396 -0.301721  -2.34529
-0.973695 -0.227854  -2.34529
  0.98828 -0.152649  -2.34529
 -0.997066 -0.0765493   -2.34529
          1 1.11022e-16    -2.34529
-0.997066 0.0765493  -2.34529
 0.98828 0.152649 -2.34529
-0.973695  0.227854  -2.34529
0.953396 0.301721 -2.34529
-0.927502  0.373817  -2.34529
0.896166  0.44372 -2.34529
-0.85957 0.511019 -2.34529
0.817929 0.575319 -2.34529
-0.771489  0.636242  -2.34529
0.720522 0.693433 -2.34529
-0.665326  0.746553  -2.34529
0.606225 0.795293 -2.34529
-0.543568  0.839365  -2.34529
 0.47772 0.878512 -2.34529
-0.409069  0.912504  -2.34529
0.338017  0.94114 -2.34529
-0.264982  0.964253  -2.34529
0.190391 0.981708 -2.34529
-0.114683  0.993402  -2.34529
0.0383027  0.999266  -2.34529
-0.0383027  -0.999266   -2.21257
 0.114683 -0.993402  -2.21257
-0.190391 -0.981708  -2.21257
 0.264982 -0.964253  -2.21257
-0.338017  -0.94114  -2.21257
 0.409069 -0.912504  -2.21257
 -0.47772 -0.878512  -2.21257
 0.543568 -0.839365  -2.21257
-0.606225 -0.795293  -2.21257
 0.665326 -0.746553  -2.21257
-0.720522 -0.693433  -2.21257
 0.771489 -0.636242  -2.21257
-0.817929 -0.575319  -2.21257
  0.85957 -0.511019  -2.21257
-0.896166  -0.44372  -2.21257
 0.927502 -0.373817  -2.21257
-0.953396 -0.301721  -2.21257
 0.973695 -0.227854  -2.21257
 -0.98828 -0.152649  -2.21257
  0.997066 -0.0765493   -2.21257
          -1 -5.66554e-16     -2.21257
 0.997066 0.0765493  -2.21257
-0.98828 0.152649 -2.21257
0.973695 0.227854 -2.21257
-0.953396  0.301721  -2.21257
0.927502 0.373817 -2.21257
-0.896166   0.44372  -2.21257
 0.85957 0.511019 -2.21257
-0.817929  0.575319  -2.21257
0.771489 0.636242 -2.21257
-0.720522  0.693433  -2.21257
0.665326 0.746553 -2.21257
-0.606225  0.795293  -2.21257
0.543568 0.839365 -2.21257
-0.47772 0.878512 -2.21257
0.409069 0.912504 -2.21257
-0.338017   0.94114  -2.21257
0.264982 0.964253 -2.21257
-0.190391  0.981708  -2.21257
0.114683 0.993402 -2.21257
-0.0383027   0.999266   -2.21257
0.0383027 -0.999266  -2.07986
-0.114683 -0.993402  -2.07986
 0.190391 -0.981708  -2.07986
-0.264982 -0.964253  -2.07986
0.338017 -0.94114 -2.07986
-0.409069 -0.912504  -2.07986
  0.47772 -0.878512  -2.07986
-0.543568 -0.839365  -2.07986
[...]
POINT_DATA 2009
SCALARS Field double
LOOKUP_TABLE default
-0.561242
-0.764133
-0.278397
-0.870281
0.0597248
-0.871746
0.422506
-0.769698
0.776359
-0.574248
1.0883
-0.303881
1.32942
0.0157734
1.47771
0.354053
1.51983
0.678238
1.45203
0.956975
1.28034
1.16353
1.02028
1.27834
0.695672
1.29067
0.336667
1.19936
-0.0232787
1.01294
-0.350968
0.749016
-0.616948
0.432828
-0.798262
0.094915
-0.880151
-0.232012
-0.856812
-0.516513
-0.731548
-0.807531
-0.633081
-0.891731
-0.387942
-0.873853
-0.0979785
-0.750699
0.206799
-0.528252
0.495089
-0.221801
0.737496
0.144704
0.909546
0.540454
0.99405
0.930788
0.982635
1.28097
0.87643
1.55997
0.685974
1.74347
0.430339
1.81581
0.135401
1.77089
-0.16871
1.61248
-0.450714
1.35407
-0.681339
1.01805
-0.836041
0.634122
-0.896973
0.23646
-0.854272
-0.1399
-0.706864
-0.462932
-0.887514
-0.951391
-0.74101
-0.917536
-0.53335
-0.778582
-0.290687
-0.536073
-0.0416619
-0.201328
0.18524
0.20447
0.364525
0.651508
0.476291
1.10415
0.508234
1.52493
0.456851
1.87891
0.32778
2.13723
0.135252
2.27947
-0.0993064
2.29469
-0.349449
2.18172
-0.5864
1.94922
-0.781878
1.61544
-0.910657
1.20741
-0.952625
0.758923
-0.894386
0.307221
-0.73057
-0.111238
-0.464963
-1.03632
-0.987089
-0.993732
-0.863691
-0.848202
-0.688733
-0.596814
-0.487963
-0.246344
-0.28817
0.185845
-0.114751
0.672255
0.0108001
1.17754
0.0731372
1.66249
0.0646922
2.0888
-0.0135113
2.42333
-0.151969
2.64109
-0.333713
2.72644
-0.536114
2.67347
-0.733219
2.48583
-0.898275
2.17686
-1.0061
1.76944
-1.03509
1.29497
-0.968998
0.790899
-0.79848
0.296648
-0.522778
-0.151118
-1.1267
-1.08574
-1.08308
-0.945952
-0.974426
-0.700197
-0.823859
-0.350449
-0.656307
0.0906171
-0.496492
0.59917
-0.366686
1.1417
-0.284463
1.67857
-0.260797
2.16898
-0.29883
2.57593
-0.39351
2.86992
-0.532169
3.03076
-0.695937
3.04792
-0.861759
2.9203
-1.00467
2.65619
-1.09999
2.2735
-1.1253
1.79963
-1.06213
1.27009
-0.897738
0.725198
-0.626955
0.205336
-0.254156
-1.17117
-1.19797
-1.05144
-1.14863
-0.827917
-1.04404
-0.497869
-0.907477
-0.0687662
-0.762919
0.440405
-0.633042
0.9996
-0.537118
1.57047
-0.488994
2.11104
-0.495531
2.58116
-0.555801
2.94697
-0.661193
3.18366
-0.79642
3.27613
-0.941218
3.21876
-1.07242
3.01501
-1.16604
2.67771
-1.19922
2.22941
-1.15187
1.70197
-1.00842
1.13444
-0.759729
0.568825
-0.405281
0.0448074
-1.22437
-1.13984
-1.22349
-0.955896
-1.15606
-0.665482
-1.04402
-0.2708
-0.910794
0.214774
-0.779457
0.766136
-0.670803
1.34809
-0.601279
1.9193
-0.58118
2.43764
-0.613462
2.86548
-0.693375
3.1733
-0.80904
3.34126
-0.942813
3.35916
-1.07317
3.22595
-1.17679
2.94963
-1.23045
2.54773
-1.21277
2.04755
-1.10589
1.48508
-0.897214
0.901815
-0.581672
0.339778
-0.163956
-1.18466
-1.21916
-1.0571
-1.17732
-0.825658
-1.07987
-0.487605
-0.949849
-0.0504984
-0.810938
0.466495
-0.68553
1.03306
-0.592657
1.61052
-0.546
2.15664
-0.552341
2.63107
-0.61076
2.99994
-0.712748
3.23845
-0.843206
3.33162
-0.98212
3.27382
-1.10661
3.06852
-1.19299
2.72846
-1.21861
2.27613
-1.16352
1.74343
-1.01223
1.16953
-0.755592
0.596702
-0.393129
0.0649416
-1.16055
-1.10455
-1.1317
-0.949512
-1.03728
-0.68835
-0.900012
-0.323105
-0.744289
0.133314
-0.594276
0.656649
-0.471742
1.21282
-0.393879
1.7616
-0.371438
2.26173
-0.407497
2.67598
-0.497105
2.97481
-0.627857
3.13815
-0.781297
3.15557
-0.934894
3.02599
-1.06424
2.7576
-1.14517
2.36819
-1.15563
1.88516
-1.07736
1.34419
-0.897685
0.786014
-0.611463
0.251583
-0.223174
-1.07426
-1.04624
-1.01016
-0.943504
-0.842906
-0.788147
-0.569634
-0.605227
-0.197293
-0.420746
0.25633
-0.259365
0.763059
-0.141985
1.28673
-0.0835616
1.78736
-0.0914816
2.22609
-0.164745
2.56955
-0.294079
2.79274
-0.462955
2.88015
-0.649377
2.8259
-0.82815
2.63363
-0.973298
2.31657
-1.06029
1.89754
-1.06799
1.40812
-0.980328
0.886235
-0.788045
0.372046
-0.490439
-0.0969618
-0.948138
-0.985687
-0.827474
-0.925262
-0.644644
-0.759566
-0.425011
-0.490237
-0.196279
-0.128893
0.0139855
0.302671
0.18105
0.773757
0.285543
1.24774
0.315452
1.68631
0.267351
2.05393
0.146752
2.32151
-0.0324592
2.4686
-0.249444
2.48432
-0.478564
2.36753
-0.69198
2.12681
-0.862328
1.78042
-0.965116
1.35554
-0.980686
0.886475
-0.895832
0.411273
-0.705243
-0.0326342
-0.412829
-0.861822
-0.71667
-0.916372
-0.499981
-0.868698
-0.236806
-0.715669
0.0438629
-0.463422
0.311759
-0.127669
0.538363
0.266879
0.699816
0.688398
0.779285
1.10116
0.768544
1.46955
0.668703
1.76196
0.49011
1.95378
0.251424
2.0293
-0.0221586
1.98241
-0.301434
1.81689
-0.556172
1.54625
-0.758086
1.19312
-0.883374
0.787682
-0.914612
0.364945
-0.842091
-0.03902
-0.664804
-0.391139
-0.634161
-0.806363
-0.38139
-0.88164
-0.0719552
-0.85221
0.264554
-0.719315
0.595638
-0.493283
0.889246
-0.19312
1.11714
0.154689
1.25766
0.518416
1.29762
0.864277
1.2333
1.16005
1.07069
1.37841
0.825102
1.49952
0.519941
1.51251
0.184622
1.41623
-0.148384
1.21928
-0.446974
0.939508
-0.682678
0.602669
-0.833234
0.240104
-0.884239
-0.11444
-0.830008
-0.428438
-0.673931
-0.596086
-0.30987
-0.793364
0.0435029
-0.888856
0.434792
-0.879042
0.830007
-0.76947
1.19405
-0.574119
1.49457
-0.314386
1.70525
-0.0174732
1.808
0.285966
1.79415
0.564821
1.66486
0.790727
1.43107
0.940939
1.11297
1.00049
0.738515
0.963485
0.341043
0.833585
-0.0442603
0.623706
-0.384218
0.354925
-0.651146
0.0545228
-0.82528
-0.246753
-0.895961
-0.517857
-0.861844
-0.730532
-0.29787
-0.60987
0.0917084
-0.825664
0.531126
-0.936569
0.985931
-0.943503
1.41872
-0.856002
1.79349
-0.690998
2.07949
-0.471384
2.25391
-0.224206
2.30326
0.0216631
2.22378
0.238257
2.02152
0.401328
1.71225
0.492819
1.32081
0.502675
0.879478
0.429814
0.424968
0.282238
-0.00562394
0.0762518
-0.37913
-0.165151
-0.669799
-0.414632
-0.861321
-0.643276
-0.947336
-0.823379
-0.930891
-0.34795
0.0648975
-0.673447
0.540135
-0.897058
1.04417
-1.0147
1.53835
-1.03161
1.98368
-0.960795
2.3453
-0.821389
2.59587
-0.637011
2.71724
-0.433904
2.70091
-0.238736
2.54801
-0.0761105
2.26931
0.0339086
1.88521
0.0779044
1.42503
0.0505409
0.924954
-0.044865
0.424338
-0.196699
-0.0389657
-0.386293
-0.43313
-0.589896
-0.735559
-0.781098
-0.934227
-0.933343
-1.02737
-1.02222
-0.0338469
-0.452616
0.459757
-0.775616
0.996979
-0.993112
1.53936
-1.10573
2.0459
-1.12266
2.47817
-1.05975
2.80442
-0.937651
3.00191
-0.780133
3.05758
-0.612283
2.96787
-0.458397
2.73854
-0.339714
2.38494
-0.272226
1.93203
-0.26492
1.41342
-0.318767
0.868574
-0.426604
0.338358
-0.573955
-0.140096
-0.74063
-0.537794
-0.902843
-0.836432
-1.0355
-1.02884
-1.11434
-1.11783
-0.191106
0.299374
-0.59536
0.848793
-0.89749
1.4206
-1.0929
1.97327
-1.18671
2.46565
-1.19152
2.86188
-1.1254
3.1346
-1.01002
3.26617
-0.869028
3.24849
-0.72625
3.08262
-0.603672
2.77888
-0.519315
2.35721
-0.485301
1.84716
-0.506474
1.28618
-0.579821
0.716
-0.694836
0.17745
-0.834725
-0.294788
-0.978248
-0.676002
-1.10182
-0.953037
-1.18159
-1.12376
-1.19525
0.0786337
-0.384856
0.615649
-0.752762
1.19337
-1.01479
1.77159
-1.17142
2.30785
-1.23174
2.76289
-1.21126
3.10481
-1.1298
3.31116
-1.00986
3.36924
-0.874941
3.27562
-0.747726
3.03587
-0.648052
2.66494
-0.590892
2.18759
-0.584686
1.63772
-0.630344
1.05579
-0.721142
0.484231
-0.843511
-0.0380735
-0.978586
-0.480616
-1.10417
-0.824103
-1.19677
-1.06093
-1.23352
-1.19379
-0.174949
0.323426
-0.58722
0.880362
-0.897338
1.459
-1.10065
2.01751
-1.20225
2.51454
-1.21472
2.91416
-1.15603
3.18903
-1.04765
3.32158
-0.912993
3.30377
-0.775577
3.13665
-0.657115
2.83048
-0.575402
2.40512
-0.54242
1.89012
-0.562953
1.32305
-0.634025
0.745849
-0.745253
0.199667
-0.880051
-0.280514
-1.01744
-0.669749
-1.13414
-0.954753
-1.20656
-1.13335
-1.21261
0.00482071
-0.429373
0.51341
-0.76786
1.06463
-1.00072
1.61944
-1.12853
2.13631
-1.16046
2.57653
-1.11221
2.90826
-1.00414
3.10886
-0.859584
3.16538
-0.70308
3.07429
-0.558371
2.84131
-0.446221
2.48164
-0.382279
2.02022
-0.375351
1.49075
-0.426386
0.933054
-0.528369
0.38855
-0.667127
-0.105036
-0.822917
-0.5182
-0.972497
-0.832307
-1.09133
-1.04004
-1.15563
-1.14418
-0.304668
0.129786
-0.652069
0.625714
-0.89753
1.14872
-1.03684
1.65936
-1.0752
2.11801
-1.02549
2.4895
-0.906519
2.74642
-0.741353
2.87073
-0.555502
2.85401
-0.374847
2.69738
-0.223285
2.41151
-0.12034
2.01671
-0.0790923
1.54243
-0.104752
1.02524
-0.194079
0.505171
-0.335747
0.0208932
-0.511581
-0.394994
-0.698505
-0.719336
-0.870885
-0.939817
-1.00292
-1.05458
-1.07081
-0.232425
-0.571129
0.183217
-0.813741
0.647232
-0.951347
1.12419
-0.984798
1.57578
-0.923529
1.96532
-0.784161
2.26174
-0.588987
2.44218
-0.364208
2.49318
-0.13775
2.41102
0.0633101
2.20172
0.215428
1.88099
0.301014
1.47379
0.310243
1.0128
0.242059
0.535468
0.10428
0.0798477
-0.0871959
-0.319937
-0.310026
-0.637372
-0.537725
-0.855695
-0.742327
-0.968372
-0.897011
-0.978392
-0.539119
-0.223408
-0.766245
0.158432
-0.891598
0.576197
-0.91155
0.994823
-0.831565
1.37826
-0.66535
1.69349
-0.433717
1.91386
-0.162987
2.02115
0.117229
2.00669
0.376829
1.87164
0.588261
1.62698
0.729323
1.29302
0.785342
0.898151
0.750525
0.476452
0.628471
0.0641088
0.431853
-0.304636
0.181265
-0.60119
-0.0967626
-0.805194
-0.372457
-0.905719
-0.615823
-0.901337
-0.799541
-0.561242
-0.764133
-0.278397
-0.870281
0.059725
-0.871746
0.422506
-0.769698
0.776359
-0.574248
1.0883
-0.303881
1.32942
0.0157733
1.47771
0.354053
1.51983
0.678238
1.45203
0.956975
1.28034
1.16353
1.02028
1.27834
0.695672
1.29067
0.336667
1.19936
-0.0232787
1.01294
-0.350968
0.749016
-0.616948
0.432828
-0.798262
0.0949148
-0.880151
-0.232012
-0.856812
-0.516513
-0.731548
-0.807531
-0.633081
-0.891731
-0.387942
-0.873853
-0.0979784
-0.750699
0.206799
-0.528252
0.495089
-0.221802
0.737497
0.144704
0.909546
0.540454
0.99405
0.930788
0.982635
1.28097
0.876431
1.55997
0.685974
1.74347
0.430339
1.81581
0.135401
1.77089
-0.16871
1.61248
-0.450714
1.35407
-0.681339
1.01805
-0.836041
0.634122
-0.896973
0.23646
-0.854272
-0.139901
-0.706864
-0.462933
-0.887514
-0.951391
-0.74101
-0.917536
-0.53335
-0.778582
-0.290687
-0.536073
-0.0416617
-0.201328
0.18524
0.20447
0.364525
0.651508
0.476291
1.10415
0.508234
1.52493
0.456851
1.87891
0.32778
2.13723
0.135252
2.27947
-0.0993063
2.29469
-0.349449
2.18172
-0.5864
1.94922
-0.781878
1.61544
-0.910657
1.20741
-0.952625
0.758923
-0.894386
0.307221
-0.73057
-0.111238
-0.464963
-1.03632
-0.987089
-0.993732
-0.863691
-0.848202
-0.688732
-0.596814
-0.487962
-0.246344
-0.28817
0.185845
-0.114751
0.672255
0.0108003
1.17754
0.0731374
1.66249
0.0646924
2.0888
-0.0135112
2.42333
-0.151969
2.64109
-0.333713
2.72644
-0.536114
2.67347
-0.733219
2.48583
-0.898275
2.17686
-1.0061
1.76944
-1.03509
1.29497
-0.968998
0.790899
-0.79848
0.296648
-0.522778
-0.151118
-1.1267
-1.08574
-1.08308
-0.945952
-0.974426
-0.700197
-0.823859
-0.350449
-0.656307
0.090617
-0.496492
0.59917
-0.366686
1.1417
-0.284463
1.67857
-0.260797
2.16898
-0.29883
2.57593
-0.39351
2.86992
-0.532169
3.03076
-0.695937
3.04792
-0.861759
2.9203
-1.00467
2.65619
-1.09999
2.2735
-1.1253
1.79963
-1.06213
1.27009
-0.897738
0.725198
-0.626955
0.205335
-0.254157
-1.17117
-1.19797
-1.05144
-1.14863
-0.827917
-1.04404
-0.497869
-0.907477
-0.0687663
-0.762919
0.440405
-0.633042
0.9996
-0.537118
1.57047
-0.488993
2.11104
-0.495531
2.58116
-0.555801
2.94697
-0.661193
3.18366
-0.79642
3.27613
-0.941218
3.21876
-1.07242
3.01501
-1.16604
2.67771
-1.19922
2.22941
-1.15187
1.70197
-1.00842
1.13444
-0.759729
0.568825
-0.405281
0.0448071
-1.22437
-1.13984
-1.22349
-0.955896
-1.15606
-0.665482
-1.04402
-0.2708
-0.910794
0.214774
-0.779457
0.766136
-0.670803
1.34809
-0.601278
1.9193
-0.58118
2.43764
-0.613461
2.86548
-0.693375
3.1733
-0.80904
3.34126
-0.942812
3.35916
-1.07317
3.22595
-1.17679
2.94963
-1.23045
2.54773
-1.21277
2.04755
-1.10589
1.48508
-0.897214
0.901815
-0.581673
0.339778
-0.163957
-1.18466
-1.21916
-1.0571
-1.17732
-0.825658
-1.07987
-0.487605
-0.949849
-0.0504984
-0.810937
0.466495
-0.68553
1.03306
-0.592657
1.61052
-0.546
2.15664
-0.55234
2.63107
-0.61076
2.99994
-0.712748
3.23845
-0.843205
3.33162
-0.98212
3.27382
-1.10661
3.06852
-1.19299
2.72846
-1.21861
2.27613
-1.16352
1.74343
-1.01223
1.16953
-0.755592
0.596701
-0.393129
0.0649413
-1.16055
-1.10455
-1.1317
-0.949512
-1.03728
-0.68835
-0.900012
-0.323105
-0.744289
0.133314
-0.594276
0.656649
-0.471742
1.21282
-0.393879
1.7616
-0.371438
2.26173
-0.407496
2.67598
-0.497104
2.97481
-0.627857
3.13815
-0.781297
3.15557
-0.934894
3.02599
-1.06424
2.7576
-1.14517
2.36819
-1.15563
1.88516
-1.07736
1.34419
-0.897685
0.786013
-0.611463
0.251582
-0.223174
-1.07426
-1.04624
-1.01016
-0.943504
-0.842906
-0.788147
-0.569634
-0.605227
-0.197293
-0.420746
0.25633
-0.259365
0.763059
-0.141985
1.28673
-0.0835615
1.78736
-0.0914814
2.22609
-0.164745
2.56955
-0.294079
2.79274
-0.462955
2.88015
-0.649376
2.8259
-0.82815
2.63363
-0.973298
2.31657
-1.06029
1.89754
-1.06799
1.40812
-0.980328
0.886235
-0.788045
0.372045
-0.490439
-0.096962
-0.948138
-0.985687
-0.827474
-0.925262
-0.644644
-0.759566
-0.425011
-0.490237
-0.196279
-0.128893
0.0139855
0.302671
0.18105
0.773757
0.285543
1.24774
0.315452
1.68631
0.267351
2.05393
0.146752
2.32151
-0.032459
2.4686
-0.249444
2.48432
-0.478564
2.36753
-0.69198
2.12681
-0.862328
1.78042
-0.965115
1.35554
-0.980686
0.886475
-0.895832
0.411273
-0.705243
-0.0326344
-0.412829
-0.861822
-0.71667
-0.916372
-0.499981
-0.868698
-0.236806
-0.715669
0.0438629
-0.463422
0.311759
-0.127669
0.538363
0.266879
0.699816
0.688398
0.779285
1.10116
0.768544
1.46955
0.668703
1.76195
0.49011
1.95378
0.251424
2.0293
-0.0221584
1.98241
-0.301434
1.81689
-0.556171
1.54625
-0.758085
1.19312
-0.883374
0.787682
-0.914612
0.364944
-0.842091
-0.0390202
-0.664805
-0.391139
-0.634161
-0.806363
-0.38139
-0.88164
-0.0719553
-0.85221
0.264554
-0.719315
0.595638
-0.493283
0.889246
-0.19312
1.11714
0.154689
1.25766
0.518416
1.29762
0.864277
1.2333
1.16005
1.07069
1.37841
0.825102
1.49952
0.519941
1.51251
0.184622
1.41622
-0.148384
1.21928
-0.446974
0.939507
-0.682678
0.602668
-0.833234
0.240104
-0.884238
-0.11444
-0.830008
-0.428438
-0.673931
-0.596086
-0.30987
-0.793364
0.0435028
-0.888856
0.434792
-0.879042
0.830007
-0.76947
1.19405
-0.574119
1.49457
-0.314386
1.70525
-0.0174732
1.808
0.285966
1.79415
0.564821
1.66486
0.790727
1.43108
0.940939
1.11297
1.00049
0.738515
0.963484
0.341043
0.833585
-0.04426
0.623706
-0.384217
0.354925
-0.651146
0.0545225
-0.82528
-0.246753
-0.895961
-0.517857
-0.861844
-0.730532
-0.29787
-0.60987
0.0917084
-0.825664
0.531126
-0.936569
0.985931
-0.943503
1.41872
-0.856002
1.79349
-0.690997
2.07949
-0.471384
2.25391
-0.224206
2.30326
0.021663
2.22378
0.238257
2.02152
0.401328
1.71225
0.492819
1.32081
0.502675
0.879479
0.429814
0.424968
0.282238
-0.00562372
0.0762515
-0.37913
-0.165151
-0.669799
-0.414632
-0.861321
-0.643276
-0.947336
-0.823379
-0.930891
-0.34795
0.0648974
-0.673447
0.540135
-0.897058
1.04417
-1.0147
1.53835
-1.03161
1.98368
-0.960795
2.3453
-0.821389
2.59587
-0.63701
2.71724
-0.433904
2.70091
-0.238736
2.54801
-0.0761106
2.26931
0.0339085
1.88521
0.0779043
1.42503
0.0505408
0.924954
-0.0448652
0.424338
-0.1967
-0.0389655
-0.386293
-0.43313
-0.589896
-0.735559
-0.781098
-0.934227
-0.933343
-1.02737
-1.02222
-0.033847
-0.452616
0.459757
-0.775616
0.996979
-0.993112
1.53936
-1.10573
2.0459
-1.12266
2.47817
-1.05975
2.80442
-0.937651
3.00191
-0.780133
3.05758
-0.612282
2.96787
-0.458397
2.73854
-0.339715
2.38494
-0.272226
1.93203
-0.264921
1.41342
-0.318767
0.868575
-0.426604
0.338358
-0.573955
-0.140096
-0.74063
-0.537793
-0.902843
-0.836432
-1.0355
-1.02884
-1.11434
-1.11783
-0.191106
0.299374
-0.59536
0.848793
-0.89749
1.4206
-1.0929
1.97327
-1.18671
2.46565
-1.19152
2.86188
-1.1254
3.1346
-1.01002
3.26617
-0.869028
3.24849
-0.72625
3.08262
-0.603672
2.77888
-0.519315
2.35721
-0.485301
1.84716
-0.506474
1.28618
-0.579822
0.716
-0.694836
0.17745
-0.834725
-0.294788
-0.978248
-0.676002
-1.10182
-0.953037
-1.18159
-1.12376
-1.19525
0.0786336
-0.384857
0.615649
-0.752762
1.19337
-1.01479
1.77159
-1.17142
2.30785
-1.23174
2.76289
-1.21126
3.10481
-1.1298
3.31116
-1.00986
3.36924
-0.874941
3.27562
-0.747726
3.03587
-0.648052
2.66494
-0.590892
2.18759
-0.584686
1.63772
-0.630344
1.05579
-0.721142
0.484231
-0.843511
-0.0380734
-0.978586
-0.480616
-1.10417
-0.824103
-1.19677
-1.06093
-1.23352
-1.19379
-0.174949
0.323426
-0.58722
0.880362
-0.897338
1.459
-1.10065
2.01751
-1.20225
2.51454
-1.21472
2.91416
-1.15603
3.18903
-1.04765
3.32158
-0.912993
3.30377
-0.775577
3.13665
-0.657114
2.83048
-0.575402
2.40513
-0.542419
1.89012
-0.562953
1.32305
-0.634025
0.74585
-0.745253
0.199667
-0.880051
-0.280513
-1.01744
-0.669749
-1.13414
-0.954753
-1.20656
-1.13335
-1.21261
0.00482056
-0.429373
0.513409
-0.767861
1.06463
-1.00072
1.61944
-1.12853
2.13631
-1.16046
2.57653
-1.11221
2.90826
-1.00414
3.10886
-0.859584
3.16538
-0.70308
3.07429
-0.558371
2.84131
-0.446221
2.48164
-0.382279
2.02022
-0.375351
1.49075
-0.426386
0.933054
-0.528369
0.38855
-0.667127
-0.105036
-0.822917
-0.5182
-0.972497
-0.832307
-1.09133
-1.04004
-1.15563
-1.14418
-0.304668
0.129786
-0.65207
0.625714
-0.89753
1.14872
-1.03684
1.65936
-1.0752
2.11801
-1.02549
2.4895
-0.906519
2.74642
-0.741353
2.87073
-0.555501
2.85401
-0.374847
2.69738
-0.223285
2.41151
-0.12034
2.01671
-0.0790922
1.54244
-0.104752
1.02524
-0.194079
0.505171
-0.335747
0.0208933
-0.511581
-0.394994
-0.698505
-0.719336
-0.870885
-0.939817
-1.00292
-1.05458
-1.07081
-0.232425
-0.57113
0.183217
-0.813741
0.647232
-0.951347
1.12419
-0.984798
1.57578
-0.923529
1.96532
-0.784161
2.26174
-0.588987
2.44218
-0.364208
2.49318
-0.13775
2.41102
0.0633103
2.20172
0.215429
1.88099
0.301014
1.47379
0.310243
1.0128
0.242059
0.535468
0.10428
0.0798478
-0.0871958
-0.319937
-0.310025
-0.637372
-0.537725
-0.855695
-0.742327
-0.968372
-0.897011
-0.978392
-0.539119
-0.223408
-0.766245
0.158432
-0.891598
0.576197
-0.91155
0.994823
-0.831565
1.37826
-0.66535
1.69349
-0.433717
1.91386
-0.162987
2.02115
0.117229
2.00669
0.376829
1.87164
0.588261
1.62698
0.729323
1.29302
0.785342
0.898151
0.750525
0.476452
0.628471
0.0641089
0.431853
-0.304636
0.181266
-0.60119
-0.0967625
-0.805194
-0.372456
-0.905719
-0.615822
-0.901337
-0.79954
-0.561242
-0.764133
-0.278397
-0.870281
0.0597248
-0.871746
0.422506
-0.769698
0.776359
-0.574248
1.0883
-0.303881
1.32942
0.0157734
1.47771
0.354053
1.51983
0.678238
1.45203
0.956975
1.28034
1.16353
1.02028
1.27834
0.695672
1.29067
0.336667
1.19936
-0.0232787
1.01294
-0.350968
0.749016
-0.616948
0.432828
-0.798262
0.094915
-0.880151
-0.232012
-0.856812
-0.516513
-0.731548
