# vtk DataFile Version 3.1
vtk output
ASCII
DATASET POLYDATA
POINTS 2009 FLOAT
0.0383027 -0.999266  -3.14159
-0.114683 -0.993402  -3.14159
 0.190391 -0.981708  -3.14159
-0.264982 -0.964253  -3.14159
0.338017 -0.94114 -3.14159
-0.409069 -0.912504  -3.14159
  0.47772 -0.878512  -3.14159
-0.543568 -0.839365  -3.14159
 0.606225 -0.795293  -3.14159
-0.665326 -0.746553  -3.14159
 0.720522 -0.693433  -3.14159
-0.771489 -0.636242  -3.14159
 0.817929 -0.575319  -3.14159
 -0.85957 -0.511019  -3.14159
0.896166 -0.44372 -3.14159
-0.927502 -0.373817  -3.14159
 0.953396 -0.301721  -3.14159
-0.973695 -0.227854  -3.14159
  0.98828 -0.152649  -3.14159
 -0.997066 -0.0765493   -3.14159
       1        0 -3.14159
-0.997066 0.0765493  -3.14159
 0.98828 0.152649 -3.14159
-0.973695  0.227854  -3.14159
0.953396 0.301721 -3.14159
-0.927502  0.373817  -3.14159
0.896166  0.44372 -3.14159
-0.85957 0.511019 -3.14159
0.817929 0.575319 -3.14159
-0.771489  0.636242  -3.14159
0.720522 0.693433 -3.14159
-0.665326  0.746553  -3.14159
0.606225 0.795293 -3.14159
-0.543568  0.839365  -3.14159
 0.47772 0.878512 -3.14159
-0.409069  0.912504  -3.14159
0.338017  0.94114 -3.14159
-0.264982  0.964253  -3.14159
0.190391 0.981708 -3.14159
-0.114683  0.993402  -3.14159
0.0383027  0.999266  -3.14159
-0.0383027  -0.999266   -3.00888
 0.114683 -0.993402  -3.00888
-0.190391 -0.981708  -3.00888
 0.264982 -0.964253  -3.00888
-0.338017  -0.94114  -3.00888
 0.409069 -0.912504  -3.00888
 -0.47772 -0.878512  -3.00888
 0.543568 -0.839365  -3.00888
-0.606225 -0.795293  -3.00888
 0.665326 -0.746553  -3.00888
-0.720522 -0.693433  -3.00888
 0.771489 -0.636242  -3.00888
-0.817929 -0.575319  -3.00888
  0.85957 -0.511019  -3.00888
-0.896166  -0.44372  -3.00888
 0.927502 -0.373817  -3.00888
-0.953396 -0.301721  -3.00888
 0.973695 -0.227854  -3.00888
 -0.98828 -0.152649  -3.00888
  0.997066 -0.0765493   -3.00888
          -1 -1.22465e-16     -3.00888
 0.997066 0.0765493  -3.00888
-0.98828 0.152649 -3.00888
0.973695 0.227854 -3.00888
-0.953396  0.301721  -3.00888
0.927502 0.373817 -3.00888
-0.896166   0.44372  -3.00888
 0.85957 0.511019 -3.00888
-0.817929  0.575319  -3.00888
0.771489 0.636242 -3.00888
-0.720522  0.693433  -3.00888
0.665326 0.746553 -3.00888
-0.606225  0.795293  -3.00888
0.543568 0.839365 -3.00888
-0.47772 0.878512 -3.00888
0.409069 0.912504 -3.00888
-0.338017   0.94114  -3.00888
0.264982 0.964253 -3.00888
-0.190391  0.981708  -3.00888
0.114683 0.993402 -3.00888
-0.0383027   0.999266   -3.00888
0.0383027 -0.999266  -2.87616
-0.114683 -0.993402  -2.87616
 0.190391 -0.981708  -2.87616
-0.264982 -0.964253  -2.87616
0.338017 -0.94114 -2.87616
-0.409069 -0.912504  -2.87616
  0.47772 -0.878512  -2.87616
-0.543568 -0.839365  -2.87616
 0.606225 -0.795293  -2.87616
-0.665326 -0.746553  -2.87616
 0.720522 -0.693433  -2.87616
-0.771489 -0.636242  -2.87616
 0.817929 -0.575319  -2.87616
 -0.85957 -0.511019  -2.87616
0.896166 -0.44372 -2.87616
-0.927502 -0.373817  -2.87616
 0.953396 -0.301721  -2.87616
-0.973695 -0.227854  -2.87616
  0.98828 -0.152649  -2.87616
 -0.997066 -0.0765493   -2.87616
          1 2.77556e-17    -2.87616
-0.997066 0.0765493  -2.87616
 0.98828 0.152649 -2.87616
-0.973695  0.227854  -2.87616
0.953396 0.301721 -2.87616
-0.927502  0.373817  -2.87616
0.896166  0.44372 -2.87616
-0.85957 0.511019 -2.87616
0.817929 0.575319 -2.87616
-0.771489  0.636242  -2.87616
0.720522 0.693433 -2.87616
-0.665326  0.746553  -2.87616
0.606225 0.795293 -2.87616
-0.543568  0.839365  -2.87616
 0.47772 0.878512 -2.87616
-0.409069  0.912504  -2.87616
0.338017  0.94114 -2.87616
-0.264982  0.964253  -2.87616
0.190391 0.981708 -2.87616
-0.114683  0.993402  -2.87616
0.0383027  0.999266  -2.87616
-0.0383027  -0.999266   -2.74344
 0.114683 -0.993402  -2.74344
-0.190391 -0.981708  -2.74344
 0.264982 -0.964253  -2.74344
-0.338017  -0.94114  -2.74344
 0.409069 -0.912504  -2.74344
 -0.47772 -0.878512  -2.74344
 0.543568 -0.839365  -2.74344
-0.606225 -0.795293  -2.74344
 0.665326 -0.746553  -2.74344
-0.720522 -0.693433  -2.74344
 0.771489 -0.636242  -2.74344
-0.817929 -0.575319  -2.74344
  0.85957 -0.511019  -2.74344
-0.896166  -0.44372  -2.74344
 0.927502 -0.373817  -2.74344
-0.953396 -0.301721  -2.74344
 0.973695 -0.227854  -2.74344
 -0.98828 -0.152649  -2.74344
  0.997066 -0.0765493   -2.74344
          -1 -1.01064e-15     -2.74344
 0.997066 0.0765493  -2.74344
-0.98828 0.152649 -2.74344
0.973695 0.227854 -2.74344
-0.953396  0.301721  -2.74344
0.927502 0.373817 -2.74344
-0.896166   0.44372  -2.74344
 0.85957 0.511019 -2.74344
-0.817929  0.575319  -2.74344
0.771489 0.636242 -2.74344
-0.720522  0.693433  -2.74344
0.665326 0.746553 -2.74344
-0.606225  0.795293  -2.74344
0.543568 0.839365 -2.74344
-0.47772 0.878512 -2.74344
0.409069 0.912504 -2.74344
-0.338017   0.94114  -2.74344
0.264982 0.964253 -2.74344
-0.190391  0.981708  -2.74344
0.114683 0.993402 -2.74344
-0.0383027   0.999266   -2.74344
0.0383027 -0.999266  -2.61072
-0.114683 -0.993402  -2.61072
 0.190391 -0.981708  -2.61072
-0.264982 -0.964253  -2.61072
0.338017 -0.94114 -2.61072
-0.409069 -0.912504  -2.61072
  0.47772 -0.878512  -2.61072
-0.543568 -0.839365  -2.61072
 0.606225 -0.795293  -2.61072
-0.665326 -0.746553  -2.61072
 0.720522 -0.693433  -2.61072
-0.771489 -0.636242  -2.61072
 0.817929 -0.575319  -2.61072
 -0.85957 -0.511019  -2.61072
0.896166 -0.44372 -2.61072
-0.927502 -0.373817  -2.61072
 0.953396 -0.301721  -2.61072
-0.973695 -0.227854  -2.61072
  0.98828 -0.152649  -2.61072
 -0.997066 -0.0765493   -2.61072
          1 5.55112e-17    -2.61072
-0.997066 0.0765493  -2.61072
 0.98828 0.152649 -2.61072
-0.973695  0.227854  -2.61072
0.953396 0.301721 -2.61072
-0.927502  0.373817  -2.61072
0.896166  0.44372 -2.61072
-0.85957 0.511019 -2.61072
0.817929 0.575319 -2.61072
-0.771489  0.636242  -2.61072
0.720522 0.693433 -2.61072
-0.665326  0.746553  -2.61072
0.606225 0.795293 -2.61072
-0.543568  0.839365  -2.61072
 0.47772 0.878512 -2.61072
-0.409069  0.912504  -2.61072
0.338017  0.94114 -2.61072
-0.264982  0.964253  -2.61072
0.190391 0.981708 -2.61072
-0.114683  0.993402  -2.61072
0.0383027  0.999266  -2.61072
-0.0383027  -0.999266   -2.47801
 0.114683 -0.993402  -2.47801
-0.190391 -0.981708  -2.47801
 0.264982 -0.964253  -2.47801
-0.338017  -0.94114  -2.47801
 0.409069 -0.912504  -2.47801
 -0.47772 -0.878512  -2.47801
 0.543568 -0.839365  -2.47801
-0.606225 -0.795293  -2.47801
 0.665326 -0.746553  -2.47801
-0.720522 -0.693433  -2.47801
 0.771489 -0.636242  -2.47801
-0.817929 -0.575319  -2.47801
  0.85957 -0.511019  -2.47801
-0.896166  -0.44372  -2.47801
 0.927502 -0.373817  -2.47801
-0.953396 -0.301721  -2.47801
 0.973695 -0.227854  -2.47801
 -0.98828 -0.152649  -2.47801
  0.997066 -0.0765493   -2.47801
          -1 -5.66554e-16     -2.47801
 0.997066 0.0765493  -2.47801
-0.98828 0.152649 -2.47801
0.973695 0.227854 -2.47801
-0.953396  0.301721  -2.47801
0.927502 0.373817 -2.47801
-0.896166   0.44372  -2.47801
 0.85957 0.511019 -2.47801
-0.817929  0.575319  -2.47801
0.771489 0.636242 -2.47801
-0.720522  0.693433  -2.47801
0.665326 0.746553 -2.47801
-0.606225  0.795293  -2.47801
0.543568 0.839365 -2.47801
-0.47772 0.878512 -2.47801
0.409069 0.912504 -2.47801
-0.338017   0.94114  -2.47801
0.264982 0.964253 -2.47801
-0.190391  0.981708  -2.47801
0.114683 0.993402 -2.47801
-0.0383027   0.999266   -2.47801
0.0383027 -0.999266  -2.34529
-0.114683 -0.993402  -2.34529
 0.190391 -0.981708  -2.34529
-0.264982 -0.964253  -2.34529
0.338017 -0.94114 -2.34529
-0.409069 -0.912504  -2.34529
  0.47772 -0.878512  -2.34529
-0.543568 -0.839365  -2.34529
 0.606225 -0.795293  -2.34529
-0.665326 -0.746553  -2.34529
 0.720522 -0.693433  -2.34529
-0.771489 -0.636242  -2.34529
 0.817929 -0.575319  -2.34529
 -0.85957 -0.511019  -2.34529
0.896166 -0.44372 -2.34529
-0.927502 -0.373817  -2.34529
 0.953396 -0.301721  -2.34529
-0.973695 -0.227854  -2.34529
  0.98828 -0.152649  -2.34529
 -0.997066 -0.0765493   -2.34529
          1 1.11022e-16    -2.34529
-0.997066 0.0765493  -2.34529
 0.98828 0.152649 -2.34529
-0.973695  0.227854  -2.34529
0.953396 0.301721 -2.34529
-0.927502  0.373817  -2.34529
0.896166  0.44372 -2.34529
-0.85957 0.511019 -2.34529
0.817929 0.575319 -2.34529
-0.771489  0.636242  -2.34529
0.720522 0.693433 -2.34529
-0.665326  0.746553  -2.34529
0.606225 0.795293 -2.34529
-0.543568  0.839365  -2.34529
 0.47772 0.878512 -2.34529
-0.409069  0.912504  -2.34529
0.338017  0.94114 -2.34529
-0.264982  0.964253  -2.34529
0.190391 0.981708 -2.34529
-0.114683  0.993402  -2.34529
0.0383027  0.999266  -2.34529
-0.0383027  -0.999266   -2.21257
 0.114683 -0.993402  -2.21257
-0.190391 -0.981708  -2.21257
 0.264982 -0.964253  -2.21257
-0.338017  -0.94114  -2.21257
 0.409069 -0.912504  -2.21257
 -0.47772 -0.878512  -2.21257
 0.543568 -0.839365  -2.21257
-0.606225 -0.795293  -2.21257
 0.665326 -0.746553  -2.21257
-0.720522 -0.693433  -2.21257
 0.771489 -0.636242  -2.21257
-0.817929 -0.575319  -2.21257
  0.85957 -0.511019  -2.21257
-0.896166  -0.44372  -2.21257
 0.927502 -0.373817  -2.21257
-0.953396 -0.301721  -2.21257
 0.973695 -0.227854  -2.21257
 -0.98828 -0.152649  -2.21257
  0.997066 -0.0765493   -2.21257
          -1 -5.66554e-16     -2.21257
 0.997066 0.0765493  -2.21257
-0.98828 0.152649 -2.21257
0.973695 0.227854 -2.21257
-0.953396  0.301721  -2.21257
0.927502 0.373817 -2.21257
-0.896166   0.44372  -2.21257
 0.85957 0.511019 -2.21257
-0.817929  0.575319  -2.21257
0.771489 0.636242 -2.21257
-0.720522  0.693433  -2.21257
0.665326 0.746553 -2.21257
-0.606225  0.795293  -2.21257
0.543568 0.839365 -2.21257
-0.47772 0.878512 -2.21257
0.409069 0.912504 -2.21257
-0.338017   0.94114  -2.21257
0.264982 0.964253 -2.21257
-0.190391  0.981708  -2.21257
0.114683 0.993402 -2.21257
-0.0383027   0.999266   -2.21257
0.0383027 -0.999266  -2.07986
-0.114683 -0.993402  -2.07986
 0.190391 -0.981708  -2.07986
-0.264982 -0.964253  -2.07986
0.338017 -0.94114 -2.07986
-0.409069 -0.912504  -2.07986
  0.47772 -0.878512  -2.07986
-0.543568 -0.839365  -2.07986
[...]
POINT_DATA 2009
SCALARS Field double
LOOKUP_TABLE default
-0.510467
-0.00243929
-0.616261
0.507516
-0.237127
0.617549
0.329297
0.241649
0.635788
-0.325107
0.442128
-0.635231
-0.100179
-0.445637
-0.563319
0.095358
-0.58287
0.560995
-0.143555
0.58486
0.40919
0.148305
0.639159
-0.405432
0.366349
-0.639345
-0.195554
-0.370334
-0.602971
0.190905
-0.535829
0.601328
-0.046597
0.538474
0.479461
0.0514612
0.627583
-0.476222
0.281949
-0.628509
-0.286317
-0.35858
-0.638693
0.204515
-0.416391
0.606051
0.134346
0.530625
0.578926
0.0371816
0.567722
-0.485647
0.109487
-0.62569
-0.435268
-0.273452
-0.636762
0.29472
-0.337345
0.630196
0.22834
0.469878
0.613668
-0.0608604
0.51609
-0.543501
0.0118745
-0.59805
-0.501726
-0.18188
-0.619939
0.377981
-0.250356
0.6396
0.316951
0.398096
0.634048
-0.157466
0.45235
-0.588612
-0.086018
-0.556408
-0.59283
-0.168115
-0.550901
0.389425
-0.075093
0.639722
0.46006
0.386803
0.632494
-0.171297
0.307343
-0.59406
-0.26045
-0.549219
-0.622559
-0.0718138
-0.494829
0.462345
0.0228834
0.631992
0.522511
0.304445
0.610473
-0.26346
0.218022
-0.623309
-0.346646
-0.492734
-0.637724
0.0261821
-0.427142
0.524405
0.12032
0.60948
0.572704
0.214917
0.574164
-0.349414
0.12356
-0.637976
-0.424681
-0.483495
-0.626368
0.0404767
-0.276432
0.532459
0.291787
0.604989
0.629621
0.201385
0.472109
-0.361307
-0.0575734
-0.638872
-0.541756
-0.413882
-0.599211
0.137571
-0.185042
0.580321
0.375315
0.566195
0.639526
0.106233
0.400672
-0.437679
-0.154265
-0.636437
-0.587314
-0.334538
-0.558027
0.23142
-0.0892879
0.61459
0.450012
0.514135
0.634477
0.00857366
0.319812
-0.503764
-0.247316
-0.619118
-0.634832
-0.322261
-0.447996
0.244701
0.0920926
0.6184
0.559404
0.505503
0.586187
-0.00574034
0.151514
-0.512447
-0.402875
-0.615369
-0.63945
-0.234058
-0.373019
0.332121
0.187752
0.636144
0.600196
0.439739
0.540246
-0.103438
0.0547509
-0.564874
-0.474014
-0.581505
-0.629114
-0.140337
-0.289264
0.41172
0.278983
0.639012
0.626936
0.36364
0.481637
-0.198694
-0.0433041
-0.604064
-0.534021
-0.575406
-0.571438
-0.126339
-0.117536
0.42256
0.429245
0.638178
0.637494
0.351782
0.344262
-0.212246
-0.220683
-0.608615
-0.611312
-0.52602
-0.520873
-0.029013
-0.0200516
0.490924
0.496618
0.623939
0.621903
0.266038
0.25786
-0.301952
-0.309824
-0.631548
-0.632912
-0.464296
-0.45809
0.0689976
0.077906
0.547763
0.552334
0.595103
0.591761
0.174025
0.16538
-0.384544
-0.391667
-0.639709
-0.633666
-0.454346
-0.314488
0.0832095
0.25296
0.555007
0.620631
0.589714
0.499965
0.16021
-0.0147073
-0.395876
-0.517756
-0.639649
-0.612863
-0.380262
-0.225692
0.179162
0.339748
0.59704
0.637027
0.544988
0.433189
0.0636803
-0.112277
-0.467953
-0.56902
-0.630676
-0.577718
-0.29723
-0.131575
0.270889
0.418536
0.625095
0.638527
0.487484
0.356232
-0.0343526
-0.207197
-0.52904
-0.606951
-0.628125
-0.477583
-0.284488
0.0494225
0.283782
0.537369
0.627976
0.602021
0.478107
0.192855
-0.0486364
-0.368666
-0.536941
-0.639271
-0.602287
-0.40701
-0.193607
0.146315
0.368022
0.58403
0.639241
0.561974
0.407617
0.0973796
-0.145547
-0.444169
-0.583709
-0.635469
-0.562349
-0.326866
-0.0981587
0.239755
0.443602
0.617013
0.635559
0.508757
0.327543
-0.000394197
-0.239024
-0.509234
-0.616805
-0.589408
-0.555398
-0.159447
-0.0839912
0.396495
0.453792
0.639637
0.633774
0.379628
0.315174
-0.179919
-0.252236
-0.597322
-0.62044
-0.544575
-0.500456
-0.0628958
0.0139191
0.46849
0.517294
0.630543
0.613088
0.296532
0.226429
-0.271603
-0.33908
-0.625262
-0.636955
-0.486974
-0.433769
0.0351399
0.111501
0.529482
0.56866
0.606702
0.578055
0.206451
0.132346
-0.356886
-0.41794
-0.638574
-0.638123
-0.351124
-0.423151
0.21299
0.125566
0.608857
0.575062
0.525572
0.571791
0.0282254
0.118311
-0.491429
-0.42866
-0.623765
-0.63756
-0.265321
-0.344926
0.302646
0.219943
0.631672
0.61108
0.463754
0.52133
-0.0697813
0.0208396
-0.548169
-0.496121
-0.594814
-0.622087
-0.173266
-0.258581
0.385173
0.309134
0.639714
0.632797
0.391044
0.458639
-0.166141
-0.0771234
-0.59206
-0.551936
-0.50502
-0.618601
0.00652875
-0.245429
0.512918
0.321581
0.615153
0.634735
0.233325
0.448558
-0.332794
-0.0913124
-0.636227
-0.559022
-0.439166
-0.586502
0.104216
-0.152279
0.565242
0.402263
0.581177
0.639472
0.139568
0.373659
-0.412322
-0.186998
-0.638974
-0.599923
-0.362991
-0.540667
0.199443
-0.0555364
0.604322
0.473485
0.533588
0.629257
0.0425174
0.289967
-0.482155
-0.278274
-0.626779
-0.604733
-0.200637
-0.532894
0.361957
-0.0412635
0.638912
0.482979
0.413281
0.626527
-0.138341
0.277142
-0.580651
-0.291086
-0.565829
-0.629481
-0.105455
-0.47264
0.438253
0.0567881
0.636357
0.541337
0.333866
0.599486
-0.232155
0.185797
-0.614808
-0.374677
-0.513666
-0.639506
-0.00778529
-0.401286
0.504249
0.153499
0.61892
0.587001
0.246589
0.558411
-0.320494
0.0900685
-0.634577
-0.449452
-0.386175
-0.63972
0.172056
-0.390049
0.594351
0.167354
0.548815
0.592534
0.0710303
0.551301
-0.462889
0.0758759
-0.63187
-0.459513
-0.303752
-0.632612
0.264178
-0.308034
0.623485
0.259729
0.492231
0.622378
-0.0269699
0.495328
-0.524856
-0.0220955
-0.609241
-0.522056
-0.214174
-0.610708
0.350073
-0.218763
0.638033
0.345983
0.424092
0.637661
-0.124334
0.427728
-0.574511
-0.119545
-0.572353
-0.530185
-0.0363945
-0.606303
0.486159
-0.205262
0.625526
0.357927
0.272739
0.638648
-0.295419
0.416989
-0.63033
-0.133575
-0.469344
-0.578591
0.0616452
-0.568084
0.543916
-0.110263
0.59777
0.43469
0.181124
0.636837
-0.378617
0.338014
-0.639615
-0.227604
-0.397479
-0.613445
0.15823
-0.516555
0.58892
-0.0126628
0.556019
0.501237
0.0852366
0.620133
-0.452906
0.251081
-0.633943
-0.316266
-0.240919
-0.617343
0.325786
-0.507995
0.635323
0.00165081
0.445071
0.509992
-0.0961376
0.616471
-0.561373
0.237858
-0.584541
-0.328621
-0.147538
-0.6357
0.406041
-0.442696
0.639317
0.0994002
0.369692
0.562946
-0.191657
0.583194
-0.601596
0.144324
-0.538048
-0.408584
-0.0506752
-0.639191
0.476747
-0.366994
0.628362
0.194804
0.285612
0.602708
-0.282656
0.536258
-0.627735
0.0473834
-0.478939
-0.419484
0.130345
-0.638449
0.577178
-0.355188
0.569592
0.208385
0.113514
0.607346
-0.432265
0.528333
-0.637141
0.0330979
-0.340811
-0.488296
0.224516
-0.624827
0.612502
-0.269751
0.518492
0.298342
0.0159635
0.630884
-0.499182
0.467097
-0.620934
-0.0649304
-0.254113
-0.545643
0.313393
-0.596588
0.633493
-0.177956
0.455229
0.381271
-0.0819635
0.639667
-0.554382
0.394889
-0.590199
-0.161426
-0.079153
-0.552966
0.457213
-0.591284
0.633093
-0.164166
0.310922
0.392659
-0.25671
0.639699
-0.621608
0.38354
-0.497408
-0.175233
0.0187956
-0.595562
0.520144
-0.547114
0.61168
-0.0677483
0.221862
0.465159
-0.343203
0.631347
-0.637389
0.300844
-0.430175
-0.26718
0.116301
-0.624215
0.570873
-0.490119
0.575953
0.0302682
0.12757
0.526733
-0.421617
0.608228
-0.638264
0.211061
-0.35283
-0.280113
0.288143
-0.627184
0.628886
-0.48081
0.474856
0.0445576
-0.053499
0.534711
-0.539573
0.60365
-0.600628
0.1975
-0.188953
-0.364672
0.371998
-0.639069
0.639412
-0.410758
0.40385
0.141562
-0.150293
0.582026
-0.585684
0.564284
-0.560012
0.102198
-0.0933358
-0.440649
0.447099
-0.636011
0.634986
-0.331047
0.323346
0.235227
-0.24354
0.61571
-0.618078
0.511695
-0.506271
0.00448394
0.0880436
-0.450903
0.557412
-0.634316
0.58781
-0.318724
0.155483
0.248474
-0.399693
0.619433
-0.639556
0.50299
-0.376331
-0.00983003
0.183839
-0.514881
0.598771
-0.614241
0.542422
-0.230248
0.0588247
0.335607
-0.471262
0.636562
-0.629842
0.436762
-0.292904
-0.107472
0.275298
-0.566778
0.626112
-0.579792
0.484315
-0.136344
-0.0392227
0.414838
-0.531762
0.638806
-0.605395
0.36027
-0.202577
-0.121553
0.426207
-0.573262
0.637822
-0.57361
0.3477
-0.122327
-0.216841
0.425619
-0.610097
0.637882
-0.523233
0.348361
-0.024139
-0.216099
0.494033
-0.60986
0.622846
-0.523686
0.261596
-0.0249268
-0.306241
0.493533
-0.632305
0.623025
-0.460931
0.262315
0.0738451
-0.305549
0.550263
-0.632185
0.5933
-0.461477
0.169326
0.0730621
-0.388428
0.549861
-0.639724
0.593593
-0.387802
0.170086
0.2492
-0.318041
0.619629
-0.634213
0.502503
-0.451461
-0.0106182
0.0872628
-0.515347
0.557026
-0.61402
0.58812
-0.229513
0.156248
0.336278
-0.399078
0.63664
-0.639574
0.436187
-0.376968
-0.108249
0.183084
-0.567143
0.598494
-0.579459
0.542838
-0.135574
0.0596096
0.415437
-0.470729
0.638763
-0.629979
0.359619
-0.293605
-0.203324
0.274587
-0.605649
0.62595
-0.531324
0.484829
-0.0384358
0.045344
0.535143
-0.480291
0.603389
-0.627339
0.19675
-0.280821
-0.365319
0.28744
-0.639105
0.628741
-0.410154
0.475383
0.142331
-0.0527133
0.582353
-0.53915
0.563913
-0.600899
0.10142
-0.189705
-0.44122
0.371357
-0.635926
0.639387
-0.330372
0.40446
0.23596
-0.149526
0.615923
-0.585367
0.511222
-0.560392
0.00369557
-0.0941156
-0.506752
0.446536
-0.617875
0.635081
-0.242811
0.324025
0.39328
-0.163404
0.639691
-0.590983
0.382909
-0.553361
-0.175991
-0.0799352
-0.595849
0.456662
-0.546706
0.633205
-0.0669644
0.31161
0.465699
-0.255988
0.631219
-0.621421
0.300148
-0.497902
-0.267896
0.0180076
-0.624386
0.519685
-0.489612
0.61191
0.0310556
0.222601
0.527179
-0.342538
0.607983
-0.637321
0.210317
-0.430757
-0.353487
0.115525
-0.638317
0.570518
-0.421025
0.576295
0.128342
0.20913
0.607592
-0.354533
0.527889
-0.638399
0.0323105
-0.420079
-0.488804
0.129573
-0.624658
0.576838
-0.269036
0.569949
0.299039
0.114289
0.631014
-0.431684
0.466558
-0.637211
-0.0657147
-0.341477
-0.546054
0.223778
-0.596304
0.612275
-0.177199
0.518953
0.381903
0.0167516
0.639677
-0.498689
0.394269
-0.621122
-0.162189
-0.254836
-0.590502
0.312706
-0.553989
0.633383
-0.0811816
0.455782
0.510467
0.00243912
0.616261
-0.507516
0.237127
-0.617549
-0.329297
-0.241649
-0.635788
0.325107
-0.442128
0.63523
0.100179
0.445636
0.563319
-0.0953581
0.58287
-0.560995
0.143555
-0.58486
-0.40919
-0.148305
-0.639158
0.405432
-0.366349
0.639345
0.195554
0.370334
0.602971
-0.190905
0.535829
-0.601328
0.0465972
-0.538474
-0.479461
-0.0514611
-0.627583
0.476222
-0.281949
0.628509
0.286317
0.35858
0.638693
-0.204515
0.416391
-0.606051
-0.134346
-0.530625
-0.578926
-0.0371816
-0.567722
0.485647
-0.109487
0.62569
0.435268
0.273452
0.636762
-0.29472
0.337345
-0.630196
-0.22834
-0.469878
-0.613667
0.0608604
-0.51609
0.543501
-0.0118745
0.59805
0.501726
0.18188
0.619939
-0.377982
0.250356
-0.6396
-0.31695
-0.398096
-0.634048
0.157466
-0.45235
0.588612
0.086018
0.556408
0.59283
0.168115
0.550901
-0.389425
0.075093
-0.639722
-0.46006
-0.386803
-0.632494
0.171297
-0.307343
0.59406
0.260449
0.549219
0.622559
0.0718137
0.494829
-0.462345
-0.0228834
-0.631992
-0.522511
-0.304445
-0.610473
0.26346
-0.218022
0.623309
0.346646
0.492733
0.637724
-0.0261822
0.427142
-0.524405
-0.12032
-0.60948
-0.572704
-0.214917
-0.574164
0.349414
-0.12356
0.637976
0.424681
0.483495
0.626368
-0.0404767
0.276431
-0.532459
-0.291787
-0.604989
-0.629621
-0.201385
-0.472109
0.361307
0.0575735
0.638872
0.541756
0.413882
0.599211
-0.137571
0.185042
-0.580321
-0.375315
-0.566195
-0.639526
-0.106233
-0.400672
0.437679
0.154265
0.636437
0.587314
0.334537
0.558027
-0.23142
0.0892879
-0.61459
-0.450012
-0.514135
-0.634477
-0.0085737
-0.319812
0.503764
0.247316
0.619118
0.634832
0.322262
0.447996
-0.244701
-0.0920927
-0.6184
-0.559404
-0.505503
-0.586187
0.0057403
-0.151513
0.512447
0.402875
0.615369
0.63945
0.234058
0.373019
-0.332121
-0.187752
-0.636144
-0.600196
-0.439739
-0.540246
0.103438
-0.0547509
0.564873
0.474014
0.581505
0.629114
0.140337
0.289264
-0.411719
-0.278983
-0.639012
-0.626936
-0.36364
-0.481637
0.198694
0.0433042
0.604064
0.534021
0.575406
0.571438
0.126339
0.117536
-0.42256
-0.429245
-0.638178
-0.637494
-0.351782
-0.344262
0.212246
0.220683
0.608615
0.611312
0.52602
0.520873
0.0290132
0.0200514
-0.490924
-0.496618
-0.623939
-0.621903
-0.266038
-0.25786
0.301952
0.309824
0.631548
0.632912
0.464297
0.458089
-0.0689974
-0.0779062
-0.547763
-0.552334
-0.595103
-0.591761
-0.174025
-0.165379
0.384544
0.391667
0.639709
0.633666
0.454346
0.314487
-0.0832093
-0.25296
-0.555007
-0.620631
-0.589714
-0.499965
-0.16021
0.0147075
0.395876
0.517756
0.639649
0.612863
0.380262
0.225692
-0.179162
-0.339748
-0.59704
-0.637027
-0.544988
-0.433189
-0.0636805
0.112277
0.467953
0.56902
0.630676
0.577717
0.297231
0.131574
-0.270889
-0.418536
-0.625095
-0.638527
-0.487484
-0.356232
0.0343525
0.207197
0.529039
0.606951
0.628125
0.477583
0.284488
-0.0494228
-0.283782
-0.537369
-0.627976
-0.602021
-0.478107
-0.192855
0.0486362
0.368666
0.536941
0.639271
0.602287
0.40701
0.193607
-0.146315
-0.368022
-0.58403
-0.639241
-0.561974
-0.407618
-0.0973794
0.145547
0.444169
0.583709
0.635469
0.562349
0.326865
0.098159
-0.239755
-0.443601
-0.617013
-0.635559
-0.508757
-0.327543
0.000394435
0.239024
0.509234
0.616805
0.589408
0.555398
0.159447
0.0839914
-0.396495
-0.453791
-0.639637
-0.633774
-0.379628
-0.315174
0.179919
0.252236
0.597322
0.62044
0.544575
0.500456
0.0628955
-0.0139188
-0.46849
-0.517293
-0.630543
-0.613088
-0.296532
-0.22643
0.271603
0.339079
0.625262
0.636955
0.486974
0.433769
-0.0351401
-0.1115
-0.529482
-0.568659
-0.606701
-0.578055
-0.206451
-0.132346
0.356886
0.41794
0.638574
0.638123
0.351123
0.423152
-0.21299
-0.125566
-0.608857
-0.575061
-0.525572
-0.571792
-0.0282251
-0.118311
0.491429
0.42866
0.623765
0.63756
0.265321
0.344927
-0.302646
-0.219943
-0.631672
-0.61108
-0.463754
-0.52133
0.0697816
-0.0208399
0.54817
0.496121
0.594814
0.622087
0.173266
0.258581
-0.385173
-0.309134
-0.639714
-0.632797
-0.391043
-0.458639
0.166141
0.0771231
0.59206
0.551936
0.50502
0.618601
-0.0065291
0.24543
-0.512918
-0.32158
-0.615153
-0.634735
-0.233324
-0.448558
0.332794
0.091312
0.636227
0.559022
0.439166
0.586502
-0.104216
0.15228
-0.565243
-0.402263
-0.581176
-0.639472
-0.139567
-0.373659
0.412322
0.186998
0.638974
0.599923
0.362991
0.540667
-0.199444
0.0555367
-0.604322
-0.473485
-0.533587
-0.629257
-0.0425171
-0.289967
0.482155
0.278273
0.626779
0.604732
0.200636
0.532895
-0.361957
0.0412639
-0.638912
-0.482979
-0.413281
-0.626527
0.138342
-0.277142
0.580651
0.291086
0.565829
0.629481
0.105455
0.472641
-0.438253
-0.0567878
-0.636357
-0.541336
-0.333865
-0.599486
0.232155
-0.185797
0.614808
0.374677
0.513666
0.639506
0.00778492
0.401287
-0.504249
-0.153499
-0.61892
-0.587001
-0.246589
-0.558411
0.320495
-0.0900689
0.634577
0.449452
0.386175
0.63972
-0.172057
0.39005
-0.594351
-0.167353
-0.548815
-0.592533
-0.0710298
-0.551301
0.462889
-0.0758763
0.631869
0.459513
0.303752
0.632612
-0.264178
0.308034
-0.623485
-0.259729
-0.492231
-0.622378
0.0269703
-0.495328
0.524856
0.0220951
0.60924
0.522056
0.214174
0.610708
-0.350074
0.218763
-0.638033
-0.345983
-0.424092
-0.637661
0.124334
-0.427728
0.574511
0.119545
0.572353
0.530185
0.0363941
0.606303
-0.486159
0.205262
-0.625525
-0.357927
-0.272739
-0.638648
0.295419
-0.416989
0.630331
0.133575
0.469343
0.578591
-0.0616456
0.568084
-0.543916
0.110264
-0.59777
-0.43469
-0.181124
-0.636837
0.378617
-0.338015
0.639615
0.227603
0.397479
0.613445
-0.15823
0.516555
-0.58892
0.0126632
-0.556019
-0.501237
-0.0852363
-0.620133
0.452906
-0.251082
0.633943
0.316265
0.240919
0.617343
-0.325786
0.507995
-0.635323
-0.00165035
-0.445071
-0.509992
0.096138
-0.616471
0.561373
-0.237859
0.584541
0.32862
0.147537
0.6357
-0.406041
0.442697
-0.639317
-0.0993998
-0.369691
-0.562946
0.191657
-0.583194
0.601596
-0.144324
0.538048
0.408584
0.0506748
0.639191
-0.476748
0.366995
-0.628362
-0.194803
-0.285612
-0.602708
0.282656
-0.536259
0.627735
-0.0473839
0.478939
0.419484
-0.130345
0.638449
-0.577178
0.355188
-0.569591
-0.208385
-0.113513
-0.607345
0.432265
-0.528333
0.637141
-0.0330983
0.34081
0.488295
-0.224516
0.624827
-0.612502
0.269751
-0.518492
-0.298342
-0.0159631
-0.630884
0.499182
-0.467097
0.620934
0.0649301
0.254113
0.545643
-0.313394
0.596589
-0.633493
0.177956
-0.455229
-0.38127
0.0819639
-0.639667
0.554382
-0.39489
0.590199
0.161426
0.0791526
0.552965
-0.457213
0.591284
-0.633093
0.164166
-0.310922
-0.392658
0.25671
-0.639699
0.621608
-0.38354
0.497407
0.175233
-0.018796
0.595562
-0.520144
0.547115
-0.61168
0.0677487
-0.221861
-0.465159
0.343204
-0.631347
0.637389
-0.300844
0.430174
0.26718
-0.116301
0.624215
-0.570874
0.490119
-0.575953
-0.0302678
-0.12757
-0.526733
0.421617
-0.608228
0.638264
-0.211061
0.35283
0.280112
-0.288144
0.627184
-0.628886
0.480811
-0.474856
-0.0445572
0.0534993
-0.534711
0.539573
-0.60365
0.600628
-0.1975
0.188952
0.364672
-0.371999
0.639069
-0.639412
0.410758
-0.403849
-0.141562
0.150293
-0.582026
0.585684
-0.564284
0.560012
-0.102198
0.0933354
0.440649
-0.4471
0.636011
-0.634986
0.331047
-0.323345
-0.235227
0.243541
-0.61571
0.618078
-0.511695
0.506271
-0.0044843
-0.088044
0.450903
-0.557413
0.634316
-0.58781
0.318724
-0.155483
-0.248474
0.399693
-0.619433
0.639556
-0.50299
0.376331
0.00982962
-0.18384
0.514881
-0.598771
0.614241
-0.542421
0.230249
-0.0588243
-0.335607
0.471262
-0.636562
0.629842
-0.436763
0.292904
0.107471
-0.275299
0.566778
-0.626112
0.579792
-0.484315
0.136345
0.0392231
-0.414838
0.531763
-0.638806
0.605395
-0.36027
0.202576
0.121553
-0.426207
0.573261
-0.637822
0.573611
-0.3477
0.122327
0.216841
-0.425619
0.610097
-0.637882
0.523233
-0.348361
0.0241387
0.216099
-0.494033
0.60986
-0.622846
0.523686
-0.261596
0.0249271
0.306241
-0.493532
0.632305
-0.623026
0.460931
-0.262315
-0.0738455
0.305549
-0.550263
0.632185
-0.5933
0.461477
-0.169326
-0.0730617
0.388428
-0.549861
0.639724
-0.593594
0.387802
-0.170087
-0.2492
0.31804
-0.619629
0.634213
-0.502503
0.451462
0.0106185
-0.0872625
0.515348
-0.557026
0.61402
-0.58812
0.229513
-0.156248
-0.336278
0.399078
-0.63664
0.639574
-0.436187
0.376968
0.108249
-0.183084
0.567143
-0.598494
0.579459
-0.542839
0.135574
-0.0596099
-0.415438
0.470729
-0.638763
0.629979
-0.359619
0.293605
0.203325
-0.274587
0.605649
-0.62595
0.531324
-0.48483
0.0384355
-0.0453442
-0.535143
0.480291
-0.603389
0.627339
-0.19675
0.280821
0.365319
-0.28744
0.639105
-0.628741
0.410154
-0.475383
-0.142331
0.0527131
-0.582353
0.53915
-0.563913
0.600899
-0.101419
0.189706
0.44122
-0.371357
0.635926
-0.639387
0.330372
-0.40446
-0.23596
0.149526
-0.615923
0.585367
-0.511222
0.560392
-0.00369539
0.0941159
0.506752
-0.446536
0.617875
-0.635081
0.242811
-0.324025
-0.39328
0.163403
-0.639691
0.590983
-0.382909
0.553361
0.175992
0.0799354
0.595849
-0.456661
0.546706
-0.633205
0.0669641
-0.31161
-0.465699
0.255988
-0.631219
0.621421
-0.300148
0.497902
0.267896
-0.0180073
0.624386
-0.519685
0.489612
-0.61191
-0.0310558
-0.222601
-0.52718
0.342538
-0.607983
0.637321
-0.210317
0.430757
0.353487
-0.115525
0.638317
-0.570518
0.421024
-0.576295
-0.128343
-0.20913
-0.607592
0.354532
-0.527889
0.638399
-0.0323104
0.420079
0.488804
-0.129573
0.624658
-0.576838
0.269036
-0.569949
-0.299039
-0.11429
-0.631014
0.431684
-0.466558
0.637211
0.0657149
0.341477
0.546054
-0.223778
0.596304
-0.612275
0.177199
-0.518953
-0.381903
-0.0167518
-0.639677
0.498689
-0.394269
0.621123
0.162189
0.254837
0.590502
-0.312706
0.553989
-0.633383
0.0811815
-0.455782
-0.510467
-0.00243929
-0.616261
0.507516
-0.237127
0.617549
0.329297
0.241649
0.635788
-0.325107
0.442128
-0.635231
-0.100179
-0.445637
-0.563319
0.095358
-0.58287
0.560995
-0.143555
0.58486
0.40919
0.148305
0.639159
-0.405432
0.366349
-0.639345
-0.195554
-0.370334
-0.602971
0.190905
-0.535829
0.601328
-0.046597
0.538474
0.479461
0.0514612
0.627583
-0.476222
0.281949
-0.628509
-0.286317
