# vtk DataFile Version 3.1
vtk output
ASCII
DATASET POLYDATA
POINTS 4260 FLOAT
2.83277e-16          -1    -3.14159
-0.104528 -0.994522  -3.14159
 0.104528 -0.994522  -3.14159
-0.207912 -0.978148  -3.14159
 0.207912 -0.978148  -3.14159
-0.309017 -0.951057  -3.14159
 0.309017 -0.951057  -3.14159
-0.406737 -0.913545  -3.14159
 0.406737 -0.913545  -3.14159
     -0.5 -0.866025  -3.14159
      0.5 -0.866025  -3.14159
-0.587785 -0.809017  -3.14159
 0.587785 -0.809017  -3.14159
-0.669131 -0.743145  -3.14159
 0.669131 -0.743145  -3.14159
-0.743145 -0.669131  -3.14159
 0.743145 -0.669131  -3.14159
-0.809017 -0.587785  -3.14159
 0.809017 -0.587785  -3.14159
-0.866025      -0.5  -3.14159
0.866025     -0.5 -3.14159
-0.913545 -0.406737  -3.14159
 0.913545 -0.406737  -3.14159
-0.951057 -0.309017  -3.14159
 0.951057 -0.309017  -3.14159
-0.978148 -0.207912  -3.14159
 0.978148 -0.207912  -3.14159
-0.994522 -0.104528  -3.14159
 0.994522 -0.104528  -3.14159
          -1 -5.66554e-16     -3.14159
       1        0 -3.14159
-0.994522  0.104528  -3.14159
0.994522 0.104528 -3.14159
-0.978148  0.207912  -3.14159
0.978148 0.207912 -3.14159
-0.951057  0.309017  -3.14159
0.951057 0.309017 -3.14159
-0.913545  0.406737  -3.14159
0.913545 0.406737 -3.14159
-0.866025       0.5  -3.14159
0.866025      0.5 -3.14159
-0.809017  0.587785  -3.14159
0.809017 0.587785 -3.14159
-0.743145  0.669131  -3.14159
0.743145 0.669131 -3.14159
-0.669131  0.743145  -3.14159
0.669131 0.743145 -3.14159
-0.587785  0.809017  -3.14159
0.587785 0.809017 -3.14159
    -0.5 0.866025 -3.14159
     0.5 0.866025 -3.14159
-0.406737  0.913545  -3.14159
0.406737 0.913545 -3.14159
-0.309017  0.951057  -3.14159
0.309017 0.951057 -3.14159
-0.207912  0.978148  -3.14159
0.207912 0.978148 -3.14159
-0.104528  0.994522  -3.14159
0.104528 0.994522 -3.14159
-1.83697e-16            1     -3.14159
-0.052336  -0.99863   -3.0509
0.052336 -0.99863  -3.0509
-0.156434 -0.987688   -3.0509
 0.156434 -0.987688   -3.0509
-0.258819 -0.965926   -3.0509
 0.258819 -0.965926   -3.0509
-0.358368  -0.93358   -3.0509
0.358368 -0.93358  -3.0509
 -0.45399 -0.891007   -3.0509
  0.45399 -0.891007   -3.0509
-0.544639 -0.838671   -3.0509
 0.544639 -0.838671   -3.0509
 -0.62932 -0.777146   -3.0509
  0.62932 -0.777146   -3.0509
-0.707107 -0.707107   -3.0509
 0.707107 -0.707107   -3.0509
-0.777146  -0.62932   -3.0509
0.777146 -0.62932  -3.0509
-0.838671 -0.544639   -3.0509
 0.838671 -0.544639   -3.0509
-0.891007  -0.45399   -3.0509
0.891007 -0.45399  -3.0509
 -0.93358 -0.358368   -3.0509
  0.93358 -0.358368   -3.0509
-0.965926 -0.258819   -3.0509
 0.965926 -0.258819   -3.0509
-0.987688 -0.156434   -3.0509
 0.987688 -0.156434   -3.0509
 -0.99863 -0.052336   -3.0509
  0.99863 -0.052336   -3.0509
-0.99863 0.052336  -3.0509
 0.99863 0.052336  -3.0509
-0.987688  0.156434   -3.0509
0.987688 0.156434  -3.0509
-0.965926  0.258819   -3.0509
0.965926 0.258819  -3.0509
-0.93358 0.358368  -3.0509
 0.93358 0.358368  -3.0509
-0.891007   0.45399   -3.0509
0.891007  0.45399  -3.0509
-0.838671  0.544639   -3.0509
0.838671 0.544639  -3.0509
-0.777146   0.62932   -3.0509
0.777146  0.62932  -3.0509
-0.707107  0.707107   -3.0509
0.707107 0.707107  -3.0509
-0.62932 0.777146  -3.0509
 0.62932 0.777146  -3.0509
-0.544639  0.838671   -3.0509
0.544639 0.838671  -3.0509
-0.45399 0.891007  -3.0509
 0.45399 0.891007  -3.0509
-0.358368   0.93358   -3.0509
0.358368  0.93358  -3.0509
-0.258819  0.965926   -3.0509
0.258819 0.965926  -3.0509
-0.156434  0.987688   -3.0509
0.156434 0.987688  -3.0509
-0.052336   0.99863   -3.0509
0.052336  0.99863  -3.0509
6.12323e-17          -1    -2.96021
-0.104528 -0.994522  -2.96021
 0.104528 -0.994522  -2.96021
-0.207912 -0.978148  -2.96021
 0.207912 -0.978148  -2.96021
-0.309017 -0.951057  -2.96021
 0.309017 -0.951057  -2.96021
-0.406737 -0.913545  -2.96021
 0.406737 -0.913545  -2.96021
     -0.5 -0.866025  -2.96021
      0.5 -0.866025  -2.96021
-0.587785 -0.809017  -2.96021
 0.587785 -0.809017  -2.96021
-0.669131 -0.743145  -2.96021
 0.669131 -0.743145  -2.96021
-0.743145 -0.669131  -2.96021
 0.743145 -0.669131  -2.96021
-0.809017 -0.587785  -2.96021
 0.809017 -0.587785  -2.96021
-0.866025      -0.5  -2.96021
0.866025     -0.5 -2.96021
-0.913545 -0.406737  -2.96021
 0.913545 -0.406737  -2.96021
-0.951057 -0.309017  -2.96021
 0.951057 -0.309017  -2.96021
-0.978148 -0.207912  -2.96021
 0.978148 -0.207912  -2.96021
-0.994522 -0.104528  -2.96021
 0.994522 -0.104528  -2.96021
          -1 -5.66554e-16     -2.96021
          1 2.77556e-17    -2.96021
-0.994522  0.104528  -2.96021
0.994522 0.104528 -2.96021
-0.978148  0.207912  -2.96021
0.978148 0.207912 -2.96021
-0.951057  0.309017  -2.96021
0.951057 0.309017 -2.96021
-0.913545  0.406737  -2.96021
0.913545 0.406737 -2.96021
-0.866025       0.5  -2.96021
0.866025      0.5 -2.96021
-0.809017  0.587785  -2.96021
0.809017 0.587785 -2.96021
-0.743145  0.669131  -2.96021
0.743145 0.669131 -2.96021
-0.669131  0.743145  -2.96021
0.669131 0.743145 -2.96021
-0.587785  0.809017  -2.96021
0.587785 0.809017 -2.96021
    -0.5 0.866025 -2.96021
     0.5 0.866025 -2.96021
-0.406737  0.913545  -2.96021
0.406737 0.913545 -2.96021
-0.309017  0.951057  -2.96021
0.309017 0.951057 -2.96021
-0.207912  0.978148  -2.96021
0.207912 0.978148 -2.96021
-0.104528  0.994522  -2.96021
0.104528 0.994522 -2.96021
-1.83697e-16            1     -2.96021
-0.052336  -0.99863  -2.86952
0.052336 -0.99863 -2.86952
-0.156434 -0.987688  -2.86952
 0.156434 -0.987688  -2.86952
-0.258819 -0.965926  -2.86952
 0.258819 -0.965926  -2.86952
-0.358368  -0.93358  -2.86952
0.358368 -0.93358 -2.86952
 -0.45399 -0.891007  -2.86952
  0.45399 -0.891007  -2.86952
-0.544639 -0.838671  -2.86952
 0.544639 -0.838671  -2.86952
 -0.62932 -0.777146  -2.86952
  0.62932 -0.777146  -2.86952
-0.707107 -0.707107  -2.86952
 0.707107 -0.707107  -2.86952
-0.777146  -0.62932  -2.86952
0.777146 -0.62932 -2.86952
-0.838671 -0.544639  -2.86952
 0.838671 -0.544639  -2.86952
-0.891007  -0.45399  -2.86952
0.891007 -0.45399 -2.86952
 -0.93358 -0.358368  -2.86952
  0.93358 -0.358368  -2.86952
-0.965926 -0.258819  -2.86952
 0.965926 -0.258819  -2.86952
-0.987688 -0.156434  -2.86952
 0.987688 -0.156434  -2.86952
 -0.99863 -0.052336  -2.86952
  0.99863 -0.052336  -2.86952
-0.99863 0.052336 -2.86952
 0.99863 0.052336 -2.86952
-0.987688  0.156434  -2.86952
0.987688 0.156434 -2.86952
-0.965926  0.258819  -2.86952
0.965926 0.258819 -2.86952
-0.93358 0.358368 -2.86952
 0.93358 0.358368 -2.86952
-0.891007   0.45399  -2.86952
0.891007  0.45399 -2.86952
-0.838671  0.544639  -2.86952
0.838671 0.544639 -2.86952
-0.777146   0.62932  -2.86952
0.777146  0.62932 -2.86952
-0.707107  0.707107  -2.86952
0.707107 0.707107 -2.86952
-0.62932 0.777146 -2.86952
 0.62932 0.777146 -2.86952
-0.544639  0.838671  -2.86952
0.544639 0.838671 -2.86952
-0.45399 0.891007 -2.86952
 0.45399 0.891007 -2.86952
-0.358368   0.93358  -2.86952
0.358368  0.93358 -2.86952
-0.258819  0.965926  -2.86952
0.258819 0.965926 -2.86952
-0.156434  0.987688  -2.86952
0.156434 0.987688 -2.86952
-0.052336   0.99863  -2.86952
0.052336  0.99863 -2.86952
6.12323e-17          -1    -2.77883
-0.104528 -0.994522  -2.77883
 0.104528 -0.994522  -2.77883
-0.207912 -0.978148  -2.77883
 0.207912 -0.978148  -2.77883
-0.309017 -0.951057  -2.77883
 0.309017 -0.951057  -2.77883
-0.406737 -0.913545  -2.77883
 0.406737 -0.913545  -2.77883
     -0.5 -0.866025  -2.77883
      0.5 -0.866025  -2.77883
-0.587785 -0.809017  -2.77883
 0.587785 -0.809017  -2.77883
-0.669131 -0.743145  -2.77883
 0.669131 -0.743145  -2.77883
-0.743145 -0.669131  -2.77883
 0.743145 -0.669131  -2.77883
-0.809017 -0.587785  -2.77883
 0.809017 -0.587785  -2.77883
-0.866025      -0.5  -2.77883
0.866025     -0.5 -2.77883
-0.913545 -0.406737  -2.77883
 0.913545 -0.406737  -2.77883
-0.951057 -0.309017  -2.77883
 0.951057 -0.309017  -2.77883
-0.978148 -0.207912  -2.77883
 0.978148 -0.207912  -2.77883
-0.994522 -0.104528  -2.77883
 0.994522 -0.104528  -2.77883
          -1 -1.22465e-16     -2.77883
          1 5.55112e-17    -2.77883
-0.994522  0.104528  -2.77883
0.994522 0.104528 -2.77883
-0.978148  0.207912  -2.77883
0.978148 0.207912 -2.77883
-0.951057  0.309017  -2.77883
0.951057 0.309017 -2.77883
-0.913545  0.406737  -2.77883
0.913545 0.406737 -2.77883
-0.866025       0.5  -2.77883
0.866025      0.5 -2.77883
-0.809017  0.587785  -2.77883
0.809017 0.587785 -2.77883
-0.743145  0.669131  -2.77883
0.743145 0.669131 -2.77883
-0.669131  0.743145  -2.77883
0.669131 0.743145 -2.77883
-0.587785  0.809017  -2.77883
0.587785 0.809017 -2.77883
    -0.5 0.866025 -2.77883
     0.5 0.866025 -2.77883
-0.406737  0.913545  -2.77883
0.406737 0.913545 -2.77883
-0.309017  0.951057  -2.77883
0.309017 0.951057 -2.77883
-0.207912  0.978148  -2.77883
0.207912 0.978148 -2.77883
-0.104528  0.994522  -2.77883
0.104528 0.994522 -2.77883
-1.83697e-16            1     -2.77883
-0.052336  -0.99863  -2.68814
0.052336 -0.99863 -2.68814
-0.156434 -0.987688  -2.68814
 0.156434 -0.987688  -2.68814
-0.258819 -0.965926  -2.68814
 0.258819 -0.965926  -2.68814
-0.358368  -0.93358  -2.68814
0.358368 -0.93358 -2.68814
 -0.45399 -0.891007  -2.68814
  0.45399 -0.891007  -2.68814
-0.544639 -0.838671  -2.68814
 0.544639 -0.838671  -2.68814
 -0.62932 -0.777146  -2.68814
  0.62932 -0.777146  -2.68814
-0.707107 -0.707107  -2.68814
 0.707107 -0.707107  -2.68814
-0.777146  -0.62932  -2.68814
0.777146 -0.62932 -2.68814
-0.838671 -0.544639  -2.68814
 0.838671 -0.544639  -2.68814
-0.891007  -0.45399  -2.68814
0.891007 -0.45399 -2.68814
 -0.93358 -0.358368  -2.68814
  0.93358 -0.358368  -2.68814
-0.965926 -0.258819  -2.68814
 0.965926 -0.258819  -2.68814
-0.987688 -0.156434  -2.68814
 0.987688 -0.156434  -2.68814
 -0.99863 -0.052336  -2.68814
  0.99863 -0.052336  -2.68814
-0.99863 0.052336 -2.68814
 0.99863 0.052336 -2.68814
-0.987688  0.156434  -2.68814
0.987688 0.156434 -2.68814
-0.965926  0.258819  -2.68814
0.965926 0.258819 -2.68814
-0.93358 0.358368 -2.68814
 0.93358 0.358368 -2.68814
[...]
POINT_DATA 4260
SCALARS Field double
LOOKUP_TABLE default
1.37297
-0.352613
2.38196
-1.90468
2.15684
-2.47937
0.81689
-1.77411
-0.944438
-0.144604
-2.21742
1.57469
-2.34602
2.49839
-1.26475
2.146
0.468702
0.6893
1.96047
-1.13248
2.44222
-2.38909
1.66668
-2.43599
0.0338093
-1.24402
-1.61446
0.584293
-2.42859
2.12009
-1.98954
2.58277
-0.523472
1.7378
1.21397
0.0153938
2.32678
-1.70802
2.24117
-2.55751
1.00038
-2.10605
-0.757055
-0.58984
-2.12527
1.21338
-2.39886
2.38296
-1.43624
2.32714
0.267179
1.08321
1.83254
-0.704106
2.45112
-2.11458
1.80187
-2.42654
0.21721
-1.48594
-0.326836
1.39042
-1.8805
2.3846
-2.46577
2.14464
-1.77544
0.796253
-0.15922
-0.963703
1.55311
-2.22673
2.47777
-2.34207
2.13265
-1.25091
0.686033
0.484234
-1.12651
1.96885
-2.37708
2.43836
-2.42179
1.65175
-1.23089
0.0146466
0.594127
-1.6288
2.12524
-2.43127
2.58232
-1.9793
1.73132
-0.505262
0.00337284
1.2315
-1.72363
2.33553
-2.57306
2.23752
-2.11682
0.987018
-0.591489
-0.772479
1.22298
-2.13392
2.40222
-2.39507
2.35052
-1.4204
1.10277
0.288569
-0.695882
1.84986
-2.12159
2.45602
-2.44698
1.79113
-1.5126
0.194243
-0.300325
-1.85818
1.41017
-2.45678
2.38987
-1.78307
2.13445
-0.179807
0.776734
1.5281
-0.982465
2.4577
-2.23568
2.12381
-2.33753
0.689611
-1.23618
-1.11386
0.500698
-2.36092
1.9778
-2.40727
2.43441
-1.22103
1.63596
0.598571
-0.00600652
2.1248
-1.64491
2.57773
-2.43565
1.72304
-1.97042
-0.00808609
-0.487929
-1.73678
1.2485
-2.58496
2.3438
-2.12353
2.23315
-0.589413
0.972483
1.23516
-0.789434
2.42217
-2.144
2.37233
-2.39195
1.11865
-1.40385
-0.692631
0.312359
-2.13351
1.87092
-2.4709
2.46511
-1.54038
1.7838
0.172734
-1.83749
-0.27398
-2.45132
1.43039
-1.7957
2.3956
-0.205422
2.12459
1.50003
0.757646
2.43817
-1.00033
2.11942
-2.24309
0.700257
-2.331
-1.09408
-1.21945
-2.34037
0.518729
-2.39282
1.98761
-1.21566
2.43059
0.595821
1.61979
2.11716
-0.0273034
2.5684
-1.66173
1.71377
-2.44071
-0.016865
-1.9622
-1.74486
-0.471309
-2.59119
1.26465
-2.12551
2.3509
-0.584568
2.22716
1.24777
0.955849
2.44037
-0.808778
2.39071
-2.15629
1.13019
-2.39018
-0.693653
-1.3872
-2.14867
0.338003
-2.49622
1.89543
-1.56732
2.47851
0.154083
1.78059
-1.81809
-2.44771
-0.248877
-1.81097
1.44914
-0.233958
2.39985
1.47002
2.11383
2.41906
0.738806
2.11852
-1.01668
0.716836
-2.24814
-1.06798
-2.32196
-2.31567
-1.20072
-2.37839
0.537985
-1.21489
1.99804
0.585462
2.42718
2.10173
1.60416
2.55399
-0.0478656
1.70391
-1.67783
-0.0217662
-2.44534
-1.74624
-1.95402
-2.59032
-0.455218
-2.12226
1.27988
-0.577727
2.35679
1.25899
2.21958
2.45462
0.93716
2.40392
-0.830629
1.13678
-2.17127
-0.698239
-2.39073
-2.16526
-1.37175
-2.5206
0.364162
-1.59122
1.92235
0.139825
2.4959
1.7821
-2.44431
-1.79987
-1.82612
-0.226165
-0.262536
1.46483
1.43992
2.40145
2.40059
2.10185
2.11981
0.720566
0.7372
-1.03104
-1.0375
-2.25082
-2.28789
-2.31114
-2.36401
-1.18118
-1.21798
0.557358
0.568416
2.00864
2.07919
2.42464
2.53489
1.59021
1.69375
-0.0663355
-0.0223958
-1.69211
-1.74039
-2.44895
-2.58195
-1.94567
-2.11388
-0.439446
-0.569677
1.29473
1.26744
2.36242
2.46335
2.21162
2.41081
0.917442
1.13814
-0.854565
-0.705635
-2.18934
-2.18167
-2.39479
-2.54203
-1.35922
-1.61027
0.389019
0.131141
1.95024
1.78859
2.51656
-2.44016
-1.83887
-1.7832
-0.288283
-0.206833
1.41208
1.47669
2.38355
2.40037
2.12216
2.08928
0.75888
0.703589
-1.00539
-1.04346
-2.25895
-2.25221
-2.35011
-2.30043
-1.22394
-1.16286
0.54647
0.575519
2.0514
2.01914
2.51245
2.42362
1.68389
1.57898
-0.0187509
-0.081992
-1.72769
-1.70448
-2.56675
-2.45188
-2.10126
-1.93742
-0.561476
-0.423645
1.27201
1.31043
2.46571
2.36968
2.41107
2.20529
1.13465
0.89824
-0.714777
-0.879957
-2.19648
-2.21091
-2.55916
-2.40358
-1.6235
-1.35131
0.12834
0.41079
1.79965
1.97757
2.53945
-1.84813
-2.43534
-0.309143
-1.7688
1.38865
-0.191386
2.36909
1.48507
2.12504
2.39778
0.779752
2.07742
-0.974511
0.68844
-2.2312
-1.05468
-2.33757
-2.25429
-1.23198
-2.29226
0.521686
-1.14768
2.02078
0.591624
2.48858
2.02982
1.67529
2.42486
-0.0109078
1.57083
-1.70906
-0.0952776
-2.54606
-1.7161
-2.08587
-2.45538
-0.554521
-1.9298
1.27169
-0.407176
2.46131
1.32872
2.40507
2.38087
1.12747
2.20273
-0.724114
0.880957
-2.20825
-0.906291
-2.57112
-2.23624
-1.63091
-2.41786
0.130586
-1.34902
1.81393
0.428267
2.56308
2.00294
-1.85432
-0.32451
-2.43086
1.37089
-1.75737
2.35829
-0.179502
2.12848
1.49144
0.798452
2.39568
-0.947135
2.06774
-2.20683
0.675213
-2.32754
-1.06611
-1.24163
-2.25932
0.495878
-2.2887
1.98971
-1.13665
2.46534
0.605908
1.66904
2.04152
0.00103467
2.42885
-1.68551
1.56518
-2.52145
-0.107933
-2.06942
-1.72918
-0.550259
-2.46119
1.26557
-1.92333
2.45003
-0.389156
2.39365
1.35137
1.11822
2.3979
-0.731667
2.20537
-2.2153
0.866387
-2.57723
-0.933203
-1.63318
-2.265
0.136088
-2.43726
1.82913
-1.35219
2.58536
0.441055
2.02506
-0.335358
-1.85905
1.35882
-2.42814
2.35173
-1.74923
2.13282
-0.169951
0.814516
1.49809
-0.924555
2.39632
-2.18739
2.06139
-2.32095
0.663423
-1.25266
-1.07944
0.470404
-2.26908
1.9601
-2.29059
2.44438
-1.12924
1.66586
0.619791
0.0167857
2.05545
-1.65811
2.43559
-2.49434
1.56046
-2.05328
-0.122571
-0.549761
-1.74632
1.25305
-2.47085
2.43192
-1.91815
2.37765
-0.368732
1.10852
1.37949
-0.735348
2.42144
-2.21579
2.21334
-2.57671
0.854556
-1.63106
-0.960166
0.142612
-2.2959
1.84227
-2.45996
2.60371
-1.3593
2.04264
0.449462
-0.343791
1.35123
-1.86456
2.34922
-2.42845
2.13842
-1.74396
0.828167
-0.160815
-0.907068
1.50753
-2.17347
2.40154
-2.31816
2.0587
-1.26476
0.652076
0.446328
-1.09608
1.93329
-2.28424
2.4266
-2.29708
1.66582
-1.1234
0.0355228
0.635481
-1.62818
2.07274
-2.46596
2.44441
-2.03821
1.55447
-0.553306
-0.141878
1.2342
-1.76954
2.40732
-2.48512
2.35773
-1.91398
1.09951
-0.345457
-0.73359
1.41284
-2.20812
2.45043
-2.5686
2.22533
-1.62494
0.844955
0.148181
-0.986089
1.85035
-2.32629
2.61528
-2.48274
2.05422
-1.36785
0.45413
1.34621
-0.352317
2.34999
-1.87291
2.14551
-2.43241
0.840015
-1.74049
-0.894184
-0.149928
-2.16486
1.5218
-2.31898
2.41223
-1.27734
2.05916
0.424638
0.639885
1.91027
-1.1168
2.41242
-2.30407
1.66831
-2.30588
0.0557111
-1.11611
-1.59751
0.655281
-2.43755
2.09395
-2.02446
2.45407
-0.56017
1.54505
1.2102
-0.167658
2.3772
-1.79942
2.33443
-2.50351
1.09149
-1.91026
-0.725946
-0.319757
-2.19151
1.44951
-2.5521
2.48202
-1.61471
2.239
0.151713
0.837076
1.85114
-1.00907
2.61748
-2.35245
2.05819
-2.50154
0.455519
-1.37516
1.34175
2.35307
-0.363146
2.15424
-1.88543
0.850926
-2.43989
-0.88497
-1.73738
-2.16092
-0.135467
-2.32291
1.54194
-1.28974
2.42804
0.406292
2.06139
1.89199
0.625584
2.40214
-1.14158
1.67242
-2.32674
0.0753545
-2.31395
-1.56845
-1.10445
-2.41077
0.680768
-2.01213
2.11884
-0.568877
2.46314
1.18327
1.5309
2.3435
-0.199996
2.30857
-1.83474
1.08408
-2.52442
-0.713337
-1.90645
-2.16661
-0.293216
-2.52722
1.48603
-1.59996
2.51221
0.153262
2.25161
1.84375
0.830856
2.60866
-1.02646
2.05309
-2.37024
0.453548
-2.51256
-1.37917
2.35768
1.33633
2.16496
-0.37773
0.86201
-1.90266
-0.878262
-2.45017
-2.16088
-1.73323
-2.32958
-0.116446
-1.30161
1.56773
0.392021
2.44747
1.87944
2.06346
2.39632
0.608123
1.67764
-1.16975
0.0925707
-2.34999
-1.54367
-2.31848
-2.38778
-1.08647
-2.0017
0.712206
-0.577823
2.14634
1.15648
2.47048
2.30922
1.51216
2.28164
-0.236956
1.07672
-1.8725
-0.69785
-2.54549
-2.13575
-1.90242
-2.49528
-0.268461
-1.5806
1.51791
0.153766
2.53664
1.82898
2.26086
2.58877
0.826835
2.03811
-1.03544
0.447664
-2.3762
-1.37908
-2.51331
2.36348
2.17838
1.329
0.874697
-0.396759
-0.872631
-1.92441
-2.16403
-2.4623
-2.33911
-1.72707
-1.31335
-0.0928305
0.381814
1.5978
1.87328
2.46824
2.39594
2.06331
1.6843
0.586772
0.106333
-1.20033
-1.52541
-2.37183
-2.37104
-2.31782
-1.99439
-1.0619
-0.585974
0.748415
1.13288
2.17485
2.27801
2.47563
2.25607
1.49055
1.0693
-0.274892
-0.682081
-1.90866
-2.10261
-2.56427
-2.45919
-1.89864
-1.55752
-0.248714
0.154481
1.5407
1.80909
2.5517
2.55956
2.26538
2.01371
0.825995
0.437247
-1.03386
-1.37553
-2.36853
-2.50328
2.19537
2.37038
0.89075
1.3192
-0.86629
-0.420433
-2.16953
-1.9501
-2.35201
-2.47529
-1.32635
-1.71842
0.374437
-0.0653633
1.87336
1.63012
2.40198
2.48785
1.6937
2.05919
0.117083
0.561234
-1.51477
-1.23236
-2.36272
-2.39112
-1.99206
-2.31187
-0.593453
-1.03223
1.11463
0.787008
2.25353
2.20262
2.23507
2.47897
1.06271
1.46903
-0.668154
-0.30922
-2.07142
-1.93899
-2.4232
-2.57874
-1.53285
-1.89604
0.156211
-0.237048
1.78708
1.55101
2.52447
2.55524
1.98194
2.26491
0.422224
0.829238
-1.37004
-1.02103
-2.48409
-2.34774
2.2166
0.911953
2.37802
-0.857128
1.30643
-2.17615
-0.448662
-2.36877
-1.97891
-1.34272
-2.48816
0.367369
-1.70707
1.87818
-0.0351531
2.41477
1.66262
1.70763
2.50423
0.126776
2.04999
-1.51105
0.531704
-2.3639
-1.26505
-1.99676
-2.40769
-0.601667
-2.302
1.10233
-1.00029
2.23839
0.824873
2.22193
2.22801
1.05888
2.48145
-0.656956
1.45103
-2.04583
-0.335509
-2.39199
-1.96001
-1.50993
-2.58769
0.158717
-1.89561
1.76591
-0.235502
2.48797
1.54724
1.94642
2.54701
0.403671
2.26006
-1.3643
0.836799
-2.4589
-0.998186
-2.31664
0.939496
2.2419
-0.842974
2.38546
-2.18203
1.29
-2.38926
-0.481108
-1.36445
-2.00965
0.357274
-2.49979
1.88479
-1.69281
2.43336
-0.00320021
1.72759
1.69367
0.138307
2.51615
-1.51174
2.03558
-2.37391
0.49895
-2.00988
-1.29768
-0.612835
-2.42207
1.09468
-2.29056
2.23336
-0.969605
2.21914
0.858781
1.06038
2.24958
-0.647825
2.48416
-2.02792
1.43947
-2.36959
-0.350492
-1.49259
-1.96956
0.160613
-2.59064
1.74757
-1.89794
2.45451
-0.244466
1.91176
1.53004
0.383964
2.52844
-1.35932
2.25186
-2.43139
0.847901
-2.27963
-0.968412
0.973359
-0.822226
2.26987
-2.18494
2.3911
-2.41221
1.2693
-1.39252
-0.516995
0.34099
-2.04071
1.88935
-2.5088
2.4553
-1.67535
1.75386
0.029804
0.154549
1.72236
-1.51307
2.52343
-2.39024
2.01687
-2.03142
0.464444
-0.629164
-1.3294
1.08893
-2.43501
2.23707
-2.28005
2.22755
-0.943627
1.06948
0.885816
-0.638803
2.26611
-2.01773
2.4877
-2.35836
1.43605
-1.48418
-0.35265
0.159709
-1.96703
1.73269
-2.58761
2.42759
-1.90276
1.88263
-0.262478
0.366417
1.50206
-1.35495
2.50218
-2.40477
2.24126
-2.24165
0.860723
-0.935996
-0.794579
1.01192
-2.18285
2.29798
-2.43534
2.39308
-1.42625
1.24423
0.31673
-0.554821
1.88826
-2.07005
2.47706
-2.51378
1.78513
-1.65442
0.177258
0.0633809
-1.51114
1.7485
-2.40899
2.52692
-2.05967
1.99576
-0.651938
0.430334
1.08181
-1.35896
2.2463
-2.44695
2.24584
-2.27252
1.08732
-0.925112
-0.627472
0.903627
-2.01347
2.27637
-2.35845
2.49185
-1.48666
1.44076
0.153734
-0.342355
1.72058
-1.95314
2.40905
-2.57886
1.86269
-1.90879
0.35452
-0.286478
-1.34999
1.46729
-2.38104
2.47139
-2.20706
2.22889
-0.905475
0.872746
-0.76142
-2.17472
1.05213
-2.45601
2.32333
-1.46321
2.39019
0.28488
1.21563
1.87931
-0.59243
2.49513
-2.09563
1.8187
-2.51383
0.206373
-1.63024
-1.5031
0.0970446
-2.42597
1.77235
-2.09148
2.52817
-0.680859
1.9748
1.07063
0.399219
2.25699
-1.38468
2.27091
-2.4577
1.11329
-2.26911
-0.611968
-0.915783
-2.01226
0.910619
-2.36788
2.27913
-1.50004
2.49547
0.141201
1.45207
1.70978
-0.321582
2.39892
-1.92956
1.85382
-2.56463
0.350965
-1.91411
-1.34278
-0.312539
-2.36088
1.43016
-2.17886
2.43908
-0.880703
2.21495
0.881415
-2.16121
-0.725685
-2.47218
1.09047
-1.5
2.34372
0.248013
2.38253
1.86269
1.18545
2.50719
-0.627576
1.85138
-2.11623
0.240052
-2.50919
-1.48804
-1.60387
-2.43791
0.130075
-2.12312
1.7944
-0.714037
2.52904
1.05419
1.95667
2.26548
0.373776
2.29866
-1.40465
1.14509
-2.4664
-0.591708
-2.26985
-2.01127
-0.916206
-2.3834
0.90602
-1.52239
2.27331
0.121977
2.49676
1.69881
1.46738
2.39583
-0.293287
1.85591
-1.89852
0.356879
-2.54522
-1.33197
-1.91658
-2.34407
-0.336799
-2.1585
1.39473
-0.86415
2.40771
0.884769
2.19944
-2.14466
-2.48344
-0.691008
-1.53359
1.1242
0.210062
2.35871
1.84092
2.37181
2.51304
1.15608
1.88066
-0.658849
0.275375
-2.13226
-1.46725
-2.50163
-2.44346
-1.57722
-2.15146
0.161542
-0.748635
1.81513
1.03311
2.53112
2.26959
1.94351
2.32525
0.3562
1.17941
-1.417
-0.567625
-2.47165
-2.00867
-2.27377
-2.40154
-0.925787
-1.55055
0.889933
0.0973644
2.25821
1.68684
2.49389
2.3978
1.48372
1.86718
-0.260808
0.371611
-1.86254
-1.3172
-2.52126
-2.3301
-1.91462
-2.14614
-0.356226
-0.856721
1.36401
0.881888
2.3791
2.18255
-2.49138
-2.12845
-1.56258
-0.660306
0.174798
1.15263
1.81805
2.37008
2.51479
2.36083
1.90576
1.12934
0.309485
-0.686647
-1.44354
-2.1461
-2.44355
-2.49411
-2.17504
-1.55242
-0.781894
0.190665
1.00948
1.83479
2.26918
2.53518
2.34833
1.93635
1.21308
0.347724
-0.541768
-1.42021
-2.00406
-2.47178
-2.41965
-2.2792
-1.58115
-0.942957
0.0697045
0.863438
1.6741
2.2339
2.40306
2.48552
1.88505
1.49844
0.393071
-0.227392
-1.2994
-1.82427
-2.31883
-2.4939
-2.14125
-1.90768
-0.858026
-0.369118
0.873066
1.33991
2.16488
2.35455
-2.49915
-1.58794
-2.11565
0.144246
-0.634436
1.79808
1.17774
2.51614
2.38131
1.92799
2.35228
0.340804
1.10529
-1.42018
-0.713596
-2.44101
-2.16149
-2.19458
-2.48962
-0.812257
-1.53088
0.985795
0.217166
2.26594
1.85323
2.3676
2.54075
1.2441
1.93473
-0.516372
0.348478
-1.99836
-1.41338
-2.43666
-2.46519
-1.61162
-2.28406
0.0415385
-0.965472
1.66163
0.828541
2.41065
2.20147
1.90709
2.47129
0.418518
1.50966
-1.28043
-0.195853
-2.3108
-1.78654
-2.14324
-2.46508
-0.866883
-1.89646
0.859584
-0.375148
2.14762
1.32335
2.33519
-1.6129
-2.51026
0.11773
-2.10761
1.78334
-0.61142
2.52093
1.2038
1.95038
2.39635
0.369721
2.34729
-1.39955
1.08163
-2.43942
-0.743928
-2.21273
-2.18207
-0.840094
-2.48966
0.963877
-1.51235
2.26244
0.241328
2.38474
1.86956
1.2724
2.54593
-0.492882
1.93688
-1.99313
0.357689
-2.45298
-1.39619
-1.64091
-2.45069
0.0146805
-2.2864
1.65084
-0.990753
2.42057
0.788023
1.93172
2.16317
0.445564
2.45206
-1.26245
1.51653
-2.30708
-0.168468
-2.15182
-1.75226
-0.881962
-2.43745
0.843216
-1.88272
2.13247
-0.374955
2.32222
1.31469
-1.6417
0.0918556
-2.52704
1.77333
-2.10288
2.53166
-0.58663
1.97657
1.236
0.398555
2.41787
-1.38211
2.34445
-2.44173
1.054
-2.23316
-0.781948
-0.867673
-2.20953
0.943951
-2.49302
2.26096
-1.49478
2.40258
0.263611
1.29978
1.88191
-0.471265
2.54784
-1.98963
1.94048
-2.47005
0.374182
-1.66968
-1.36893
-0.0104147
-2.42795
1.64272
-2.28498
2.43345
-1.01633
1.95862
0.745232
0.47293
2.12225
-1.24708
2.42991
-2.30883
1.51916
-2.1671
-0.147005
-0.90229
-1.72432
0.825697
-2.41406
2.12129
-1.86878
2.31694
-0.369585
1.31422
0.0615341
-1.67804
1.76465
-2.54933
2.54831
-2.09728
2.00939
-0.554063
0.430855
1.27859
-1.36606
2.44583
-2.44904
2.33978
-2.25915
1.0174
-0.898448
-0.830068
0.924336
-2.24217
2.26243
-2.49563
2.42392
-1.47516
1.32923
0.283811
-0.449822
1.88754
-1.98807
2.54343
-2.48951
1.94366
-1.69979
0.396878
-0.0348792
-1.3327
1.6372
-2.39788
2.44992
-2.27962
1.98844
-1.04022
0.500758
0.703783
-1.23476
2.08274
-2.31666
2.40776
-2.18943
1.51844
-0.927478
-0.132764
0.808165
-1.70547
2.1156
-2.3979
2.3207
-1.85683
1.3224
-0.359924
0.0217261
1.75183
-1.72353
2.56799
-2.57413
2.04977
-2.08479
0.470175
-0.50831
-1.34779
1.33308
-2.45999
2.47702
-2.29228
2.32776
-0.935871
0.968194
0.901927
-0.887239
2.26588
-2.27492
2.45034
-2.492
1.3639
-1.45122
-0.425656
0.300343
-1.98728
1.88341
-2.51226
2.53078
-1.73353
1.94575
-0.0611314
0.424828
1.63286
-1.28965
2.47002
-2.36302
2.02228
-2.27145
0.530472
-1.06102
-1.22442
0.667303
-2.33024
2.04907
-2.21895
2.38903
-0.957735
1.51558
0.790787
-0.126744
2.11615
-1.69806
2.33452
-2.39144
1.33992
-1.84844
-0.346253
1.72902
-0.0308264
2.58565
-1.7768
2.09612
-2.59616
0.518813
-2.05943
-1.32291
-0.446484
-2.47093
1.39734
-2.33174
2.5058
-0.982096
2.30332
0.873165
0.905827
2.26859
-0.94872
2.48158
-2.30091
1.40595
-2.47766
-0.395553
-1.42302
-1.98482
0.310301
-2.53795
1.8674
-1.77274
2.5101
-0.092111
1.94747
1.62717
0.456724
2.49271
-1.24347
2.06098
-2.32753
0.564184
-2.26277
-1.21378
-1.07787
-2.34802
0.639322
-2.25533
2.02561
-0.99369
2.37703
0.772691
1.51172
2.12249
-0.129837
2.35867
-1.7039
1.36749
-2.39618
-0.328133
-1.84411
1.69177
2.59548
-0.0964513
2.14461
-1.83372
0.577001
-2.60941
-1.2876
-2.01723
-2.4769
-0.369501
-2.37425
1.46588
-1.03713
2.52578
0.835175
2.26388
2.26688
0.833656
2.51537
-1.00742
1.45576
-2.31415
-0.356926
-2.45144
-1.9776
-1.39371
-2.56485
0.310461
-1.81802
1.83966
-0.130411
2.4841
1.61691
1.95031
2.51588
0.4903
2.10453
-1.1994
0.603929
-2.2968
-1.19977
-2.25646
-2.36739
-1.0901
-2.29748
0.623169
-1.03602
2.01627
0.752085
2.37431
2.13285
1.50738
2.39236
-0.142961
1.40553
-1.7241
-0.304523
-2.41238
-1.8431
2.59246
1.63838
2.19018
-0.172291
0.642677
-1.88857
-1.23976
-2.60901
-2.47296
-1.95775
-2.41489
-0.282217
-1.0987
1.5314
0.786726
2.53215
2.25712
2.21074
2.54804
0.758326
1.51172
-1.05619
-0.308604
-2.31213
-1.96265
-2.41665
-2.59013
-1.36864
-1.8684
0.298943
-0.177513
1.80351
1.59906
2.45756
2.53665
1.95565
2.15181
0.522047
0.651014
-1.16376
-1.1793
-2.2766
-2.38503
-2.25519
-2.3435
-1.0968
-1.0851
0.621859
0.72662
2.0239
2.14426
2.38204
2.43352
1.50204
1.45379
-0.167145
-0.274042
-1.75889
-1.84353
-2.43894
2.57381
2.2278
1.57041
0.71193
-0.253065
-1.17968
-1.93564
-2.45557
-2.59283
-2.44839
-1.88451
-1.16274
-0.192274
0.72858
1.58688
2.23671
2.52349
2.57543
2.14923
1.57059
0.688066
-0.25121
-1.09005
-1.9379
-2.29681
-2.6105
-2.38028
-1.92147
-1.35336
-0.233281
0.27675
1.57145
1.7653
2.55188
2.43629
2.20062
1.96419
0.705549
0.547581
-1.14994
-1.14289
-2.39744
-2.27182
-2.39076
-2.26043
-1.14069
-1.09637
0.69397
0.637898
2.15294
2.04977
2.47886
2.39956
1.51106
1.49401
-0.235376
-0.203413
-1.8426
-1.80742
-2.47332
2.25376
2.5397
0.780002
1.49233
-1.10994
-0.332467
-2.42353
-1.97084
-2.47048
-2.56225
-1.22448
-1.80438
0.663253
-0.108212
2.20466
1.62765
2.59382
2.50238
1.6282
2.08757
-0.187013
0.630763
-1.90261
-1.10726
-2.62292
-2.2738
-1.97381
-2.35053
-0.295926
-1.35137
1.53326
0.248229
2.55884
1.73321
2.24807
2.42576
0.766276
1.9757
-1.11042
0.562419
-2.40152
-1.14203
-2.43614
-2.28528
-1.20159
-2.27165
0.652417
-1.08647
2.15493
0.672832
2.52417
2.09302
1.57509
2.42408
-0.187718
1.48061
-1.83698
-0.252356
-2.51166
-1.86751
2.26656
0.842393
2.49315
-1.03489
1.41044
-2.37823
-0.404624
-2.47892
-1.99272
-1.27965
-2.52185
0.594368
-1.72592
2.1617
-0.0374774
2.60071
1.65239
1.68033
2.47471
-0.119459
2.0348
-1.8576
0.5924
-2.62524
-1.10897
-2.02166
-2.25008
-0.362348
-2.33392
1.48528
-1.36262
2.5557
0.220157
2.29097
1.71519
0.83074
2.42974
-1.06091
1.98876
-2.39503
0.562575
-2.47637
-1.1642
-1.26563
-2.31681
0.601392
-2.28597
2.14689
-1.06435
2.56491
0.726627
1.6426
2.15042
-0.131131
2.45103
-1.82338
1.45875
-2.54912
-0.3136
-1.93552
0.895791
2.26713
-0.959566
2.43936
-2.32325
1.3315
-2.4739
-0.465263
-1.3253
-2.00253
0.525794
-2.47832
2.11005
-1.65754
2.59523
0.015011
1.72358
1.66292
-0.0524891
2.44777
-1.80496
1.99867
-2.61655
0.576119
-2.06172
-1.09819
-0.428699
-2.23167
1.42972
-2.33348
2.54185
-1.38365
2.32646
0.199903
0.895633
1.71685
-1.00314
2.44901
-2.37702
2.00047
-2.50846
0.544914
-1.32979
-1.20951
0.541871
-2.36281
2.12672
-2.29862
2.59684
-1.0277
1.70961
0.797142
-0.0668672
2.21644
-1.79926
2.47479
-2.58049
1.42592
-2.0064
-0.385279
0.938637
-0.888705
2.25845
-2.26354
2.3846
-2.45778
1.26156
-1.36031
-0.512238
0.46089
-2.00359
2.05287
-2.43878
2.57822
-1.60589
1.75587
0.0472875
0.0102418
1.66294
-1.74773
2.42793
-2.59742
1.98374
-2.09167
0.581805
-0.491118
-1.07903
1.36974
-2.22247
2.51802
-2.34845
2.35244
-1.40878
0.957302
0.193408
-0.940071
1.73976
-2.34802
2.48039
-2.53023
2.00632
-1.39052
0.507684
0.476405
-1.27484
2.09418
-2.41681
2.61684
-2.30405
1.7719
-0.975738
0.00251147
0.879847
-1.76348
2.28399
-2.60104
2.48981
-2.07428
1.38107
-0.463746
-0.826029
0.971129
-2.20437
2.24479
-2.43447
2.33496
-1.38535
1.2051
0.402102
-0.545342
1.99376
-2.00016
2.55197
-2.40922
1.77683
-1.57487
0.0659735
0.0598928
-1.68927
1.65642
-2.56962
2.41899
-2.11057
1.99045
-0.546431
0.605986
1.30896
-1.05628
2.48612
-2.22413
2.36792
-2.3749
1.0124
-1.43153
-0.875528
0.203814
-2.31008
1.78091
-2.54069
2.51721
-1.4444
2.0011
0.408765
0.451305
2.05104
-1.3539
2.62345
-2.47063
1.82565
-2.29754
0.0733643
-0.910041
-1.71682
0.968138
-2.6076
2.34564
-2.13334
2.49199
-0.543863
1.32532
-0.773836
-2.15049
0.994781
-2.40848
2.23074
-1.40234
2.29548
0.350806
1.16477
1.9362
-0.565717
2.51989
-1.99613
1.78773
-2.39345
0.113235
-1.56542
-1.63267
0.0550858