# vtk DataFile Version 3.1
vtk output
ASCII
DATASET POLYDATA
POINTS 4260 FLOAT
2.83277e-16          -1    -3.14159
-0.104528 -0.994522  -3.14159
 0.104528 -0.994522  -3.14159
-0.207912 -0.978148  -3.14159
 0.207912 -0.978148  -3.14159
-0.309017 -0.951057  -3.14159
 0.309017 -0.951057  -3.14159
-0.406737 -0.913545  -3.14159
 0.406737 -0.913545  -3.14159
     -0.5 -0.866025  -3.14159
      0.5 -0.866025  -3.14159
-0.587785 -0.809017  -3.14159
 0.587785 -0.809017  -3.14159
-0.669131 -0.743145  -3.14159
 0.669131 -0.743145  -3.14159
-0.743145 -0.669131  -3.14159
 0.743145 -0.669131  -3.14159
-0.809017 -0.587785  -3.14159
 0.809017 -0.587785  -3.14159
-0.866025      -0.5  -3.14159
0.866025     -0.5 -3.14159
-0.913545 -0.406737  -3.14159
 0.913545 -0.406737  -3.14159
-0.951057 -0.309017  -3.14159
 0.951057 -0.309017  -3.14159
-0.978148 -0.207912  -3.14159
 0.978148 -0.207912  -3.14159
-0.994522 -0.104528  -3.14159
 0.994522 -0.104528  -3.14159
          -1 -5.66554e-16     -3.14159
       1        0 -3.14159
-0.994522  0.104528  -3.14159
0.994522 0.104528 -3.14159
-0.978148  0.207912  -3.14159
0.978148 0.207912 -3.14159
-0.951057  0.309017  -3.14159
0.951057 0.309017 -3.14159
-0.913545  0.406737  -3.14159
0.913545 0.406737 -3.14159
-0.866025       0.5  -3.14159
0.866025      0.5 -3.14159
-0.809017  0.587785  -3.14159
0.809017 0.587785 -3.14159
-0.743145  0.669131  -3.14159
0.743145 0.669131 -3.14159
-0.669131  0.743145  -3.14159
0.669131 0.743145 -3.14159
-0.587785  0.809017  -3.14159
0.587785 0.809017 -3.14159
    -0.5 0.866025 -3.14159
     0.5 0.866025 -3.14159
-0.406737  0.913545  -3.14159
0.406737 0.913545 -3.14159
-0.309017  0.951057  -3.14159
0.309017 0.951057 -3.14159
-0.207912  0.978148  -3.14159
0.207912 0.978148 -3.14159
-0.104528  0.994522  -3.14159
0.104528 0.994522 -3.14159
-1.83697e-16            1     -3.14159
-0.052336  -0.99863   -3.0509
0.052336 -0.99863  -3.0509
-0.156434 -0.987688   -3.0509
 0.156434 -0.987688   -3.0509
-0.258819 -0.965926   -3.0509
 0.258819 -0.965926   -3.0509
-0.358368  -0.93358   -3.0509
0.358368 -0.93358  -3.0509
 -0.45399 -0.891007   -3.0509
  0.45399 -0.891007   -3.0509
-0.544639 -0.838671   -3.0509
 0.544639 -0.838671   -3.0509
 -0.62932 -0.777146   -3.0509
  0.62932 -0.777146   -3.0509
-0.707107 -0.707107   -3.0509
 0.707107 -0.707107   -3.0509
-0.777146  -0.62932   -3.0509
0.777146 -0.62932  -3.0509
-0.838671 -0.544639   -3.0509
 0.838671 -0.544639   -3.0509
-0.891007  -0.45399   -3.0509
0.891007 -0.45399  -3.0509
 -0.93358 -0.358368   -3.0509
  0.93358 -0.358368   -3.0509
-0.965926 -0.258819   -3.0509
 0.965926 -0.258819   -3.0509
-0.987688 -0.156434   -3.0509
 0.987688 -0.156434   -3.0509
 -0.99863 -0.052336   -3.0509
  0.99863 -0.052336   -3.0509
-0.99863 0.052336  -3.0509
 0.99863 0.052336  -3.0509
-0.987688  0.156434   -3.0509
0.987688 0.156434  -3.0509
-0.965926  0.258819   -3.0509
0.965926 0.258819  -3.0509
-0.93358 0.358368  -3.0509
 0.93358 0.358368  -3.0509
-0.891007   0.45399   -3.0509
0.891007  0.45399  -3.0509
-0.838671  0.544639   -3.0509
0.838671 0.544639  -3.0509
-0.777146   0.62932   -3.0509
0.777146  0.62932  -3.0509
-0.707107  0.707107   -3.0509
0.707107 0.707107  -3.0509
-0.62932 0.777146  -3.0509
 0.62932 0.777146  -3.0509
-0.544639  0.838671   -3.0509
0.544639 0.838671  -3.0509
-0.45399 0.891007  -3.0509
 0.45399 0.891007  -3.0509
-0.358368   0.93358   -3.0509
0.358368  0.93358  -3.0509
-0.258819  0.965926   -3.0509
0.258819 0.965926  -3.0509
-0.156434  0.987688   -3.0509
0.156434 0.987688  -3.0509
-0.052336   0.99863   -3.0509
0.052336  0.99863  -3.0509
6.12323e-17          -1    -2.96021
-0.104528 -0.994522  -2.96021
 0.104528 -0.994522  -2.96021
-0.207912 -0.978148  -2.96021
 0.207912 -0.978148  -2.96021
-0.309017 -0.951057  -2.96021
 0.309017 -0.951057  -2.96021
-0.406737 -0.913545  -2.96021
 0.406737 -0.913545  -2.96021
     -0.5 -0.866025  -2.96021
      0.5 -0.866025  -2.96021
-0.587785 -0.809017  -2.96021
 0.587785 -0.809017  -2.96021
-0.669131 -0.743145  -2.96021
 0.669131 -0.743145  -2.96021
-0.743145 -0.669131  -2.96021
 0.743145 -0.669131  -2.96021
-0.809017 -0.587785  -2.96021
 0.809017 -0.587785  -2.96021
-0.866025      -0.5  -2.96021
0.866025     -0.5 -2.96021
-0.913545 -0.406737  -2.96021
 0.913545 -0.406737  -2.96021
-0.951057 -0.309017  -2.96021
 0.951057 -0.309017  -2.96021
-0.978148 -0.207912  -2.96021
 0.978148 -0.207912  -2.96021
-0.994522 -0.104528  -2.96021
 0.994522 -0.104528  -2.96021
          -1 -5.66554e-16     -2.96021
          1 2.77556e-17    -2.96021
-0.994522  0.104528  -2.96021
0.994522 0.104528 -2.96021
-0.978148  0.207912  -2.96021
0.978148 0.207912 -2.96021
-0.951057  0.309017  -2.96021
0.951057 0.309017 -2.96021
-0.913545  0.406737  -2.96021
0.913545 0.406737 -2.96021
-0.866025       0.5  -2.96021
0.866025      0.5 -2.96021
-0.809017  0.587785  -2.96021
0.809017 0.587785 -2.96021
-0.743145  0.669131  -2.96021
0.743145 0.669131 -2.96021
-0.669131  0.743145  -2.96021
0.669131 0.743145 -2.96021
-0.587785  0.809017  -2.96021
0.587785 0.809017 -2.96021
    -0.5 0.866025 -2.96021
     0.5 0.866025 -2.96021
-0.406737  0.913545  -2.96021
0.406737 0.913545 -2.96021
-0.309017  0.951057  -2.96021
0.309017 0.951057 -2.96021
-0.207912  0.978148  -2.96021
0.207912 0.978148 -2.96021
-0.104528  0.994522  -2.96021
0.104528 0.994522 -2.96021
-1.83697e-16            1     -2.96021
-0.052336  -0.99863  -2.86952
0.052336 -0.99863 -2.86952
-0.156434 -0.987688  -2.86952
 0.156434 -0.987688  -2.86952
-0.258819 -0.965926  -2.86952
 0.258819 -0.965926  -2.86952
-0.358368  -0.93358  -2.86952
0.358368 -0.93358 -2.86952
 -0.45399 -0.891007  -2.86952
  0.45399 -0.891007  -2.86952
-0.544639 -0.838671  -2.86952
 0.544639 -0.838671  -2.86952
 -0.62932 -0.777146  -2.86952
  0.62932 -0.777146  -2.86952
-0.707107 -0.707107  -2.86952
 0.707107 -0.707107  -2.86952
-0.777146  -0.62932  -2.86952
0.777146 -0.62932 -2.86952
-0.838671 -0.544639  -2.86952
 0.838671 -0.544639  -2.86952
-0.891007  -0.45399  -2.86952
0.891007 -0.45399 -2.86952
 -0.93358 -0.358368  -2.86952
  0.93358 -0.358368  -2.86952
-0.965926 -0.258819  -2.86952
 0.965926 -0.258819  -2.86952
-0.987688 -0.156434  -2.86952
 0.987688 -0.156434  -2.86952
 -0.99863 -0.052336  -2.86952
  0.99863 -0.052336  -2.86952
-0.99863 0.052336 -2.86952
 0.99863 0.052336 -2.86952
-0.987688  0.156434  -2.86952
0.987688 0.156434 -2.86952
-0.965926  0.258819  -2.86952
0.965926 0.258819 -2.86952
-0.93358 0.358368 -2.86952
 0.93358 0.358368 -2.86952
-0.891007   0.45399  -2.86952
0.891007  0.45399 -2.86952
-0.838671  0.544639  -2.86952
0.838671 0.544639 -2.86952
-0.777146   0.62932  -2.86952
0.777146  0.62932 -2.86952
-0.707107  0.707107  -2.86952
0.707107 0.707107 -2.86952
-0.62932 0.777146 -2.86952
 0.62932 0.777146 -2.86952
-0.544639  0.838671  -2.86952
0.544639 0.838671 -2.86952
-0.45399 0.891007 -2.86952
 0.45399 0.891007 -2.86952
-0.358368   0.93358  -2.86952
0.358368  0.93358 -2.86952
-0.258819  0.965926  -2.86952
0.258819 0.965926 -2.86952
-0.156434  0.987688  -2.86952
0.156434 0.987688 -2.86952
-0.052336   0.99863  -2.86952
0.052336  0.99863 -2.86952
6.12323e-17          -1    -2.77883
-0.104528 -0.994522  -2.77883
 0.104528 -0.994522  -2.77883
-0.207912 -0.978148  -2.77883
 0.207912 -0.978148  -2.77883
-0.309017 -0.951057  -2.77883
 0.309017 -0.951057  -2.77883
-0.406737 -0.913545  -2.77883
 0.406737 -0.913545  -2.77883
     -0.5 -0.866025  -2.77883
      0.5 -0.866025  -2.77883
-0.587785 -0.809017  -2.77883
 0.587785 -0.809017  -2.77883
-0.669131 -0.743145  -2.77883
 0.669131 -0.743145  -2.77883
-0.743145 -0.669131  -2.77883
 0.743145 -0.669131  -2.77883
-0.809017 -0.587785  -2.77883
 0.809017 -0.587785  -2.77883
-0.866025      -0.5  -2.77883
0.866025     -0.5 -2.77883
-0.913545 -0.406737  -2.77883
 0.913545 -0.406737  -2.77883
-0.951057 -0.309017  -2.77883
 0.951057 -0.309017  -2.77883
-0.978148 -0.207912  -2.77883
 0.978148 -0.207912  -2.77883
-0.994522 -0.104528  -2.77883
 0.994522 -0.104528  -2.77883
          -1 -1.22465e-16     -2.77883
          1 5.55112e-17    -2.77883
-0.994522  0.104528  -2.77883
0.994522 0.104528 -2.77883
-0.978148  0.207912  -2.77883
0.978148 0.207912 -2.77883
-0.951057  0.309017  -2.77883
0.951057 0.309017 -2.77883
-0.913545  0.406737  -2.77883
0.913545 0.406737 -2.77883
-0.866025       0.5  -2.77883
0.866025      0.5 -2.77883
-0.809017  0.587785  -2.77883
0.809017 0.587785 -2.77883
-0.743145  0.669131  -2.77883
0.743145 0.669131 -2.77883
-0.669131  0.743145  -2.77883
0.669131 0.743145 -2.77883
-0.587785  0.809017  -2.77883
0.587785 0.809017 -2.77883
    -0.5 0.866025 -2.77883
     0.5 0.866025 -2.77883
-0.406737  0.913545  -2.77883
0.406737 0.913545 -2.77883
-0.309017  0.951057  -2.77883
0.309017 0.951057 -2.77883
-0.207912  0.978148  -2.77883
0.207912 0.978148 -2.77883
-0.104528  0.994522  -2.77883
0.104528 0.994522 -2.77883
-1.83697e-16            1     -2.77883
-0.052336  -0.99863  -2.68814
0.052336 -0.99863 -2.68814
-0.156434 -0.987688  -2.68814
 0.156434 -0.987688  -2.68814
-0.258819 -0.965926  -2.68814
 0.258819 -0.965926  -2.68814
-0.358368  -0.93358  -2.68814
0.358368 -0.93358 -2.68814
 -0.45399 -0.891007  -2.68814
  0.45399 -0.891007  -2.68814
-0.544639 -0.838671  -2.68814
 0.544639 -0.838671  -2.68814
 -0.62932 -0.777146  -2.68814
  0.62932 -0.777146  -2.68814
-0.707107 -0.707107  -2.68814
 0.707107 -0.707107  -2.68814
-0.777146  -0.62932  -2.68814
0.777146 -0.62932 -2.68814
-0.838671 -0.544639  -2.68814
 0.838671 -0.544639  -2.68814
-0.891007  -0.45399  -2.68814
0.891007 -0.45399 -2.68814
 -0.93358 -0.358368  -2.68814
  0.93358 -0.358368  -2.68814
-0.965926 -0.258819  -2.68814
 0.965926 -0.258819  -2.68814
-0.987688 -0.156434  -2.68814
 0.987688 -0.156434  -2.68814
 -0.99863 -0.052336  -2.68814
  0.99863 -0.052336  -2.68814
-0.99863 0.052336 -2.68814
 0.99863 0.052336 -2.68814
-0.987688  0.156434  -2.68814
0.987688 0.156434 -2.68814
-0.965926  0.258819  -2.68814
0.965926 0.258819 -2.68814
-0.93358 0.358368 -2.68814
 0.93358 0.358368 -2.68814
[...]
POINT_DATA 4260
SCALARS Field double
LOOKUP_TABLE default
-0.0960562
-1.71188
1.56067
-2.44814
2.40235
-1.91723
1.99727
-0.383896
0.558041
1.36721
-1.16927
2.43331
-2.29102
2.25856
-2.22828
0.920675
-1.01421
-0.905142
0.723834
-2.28849
2.08802
-2.51996
2.37453
-1.47387
1.43617
0.325712
-0.242465
1.9688
-1.79439
2.62271
-2.41837
1.95566
-1.79254
0.304642
-0.239574
-1.49469
1.43885
-2.53289
2.37596
-2.2895
2.08785
-0.894983
0.72253
0.937237
-1.01558
2.27514
-2.22855
2.44455
-2.28947
1.37051
-1.16591
-0.388081
0.562428
-1.92619
2.00132
-2.45839
2.4045
-1.72042
1.55958
-0.10108
-1.68512
-0.0689979
-2.43138
1.57783
-1.91594
2.4034
-0.397805
1.98286
1.3433
0.535436
2.40702
-1.18946
2.23721
-2.29992
0.909508
-2.22301
-0.903757
-0.999057
-2.2752
0.739694
-2.49803
2.09521
-1.44877
2.36831
0.347267
1.41874
1.98046
-0.263134
2.62043
-1.80858
1.93934
-2.41958
0.27867
-1.78069
-1.52249
-0.220934
-2.5538
1.45487
-2.29673
2.38149
-0.885983
2.08051
0.959913
0.706482
2.30469
-1.03169
2.47204
-2.23574
1.38747
-2.2828
-0.386986
-1.14683
-1.94153
0.586688
-2.48563
2.02084
-1.75107
2.41085
-0.12538
1.54927
-1.66067
-2.42079
-0.0410848
-1.9236
1.5973
-0.420559
2.40655
1.31415
1.96956
2.38154
0.513217
2.22287
-1.20929
0.909026
-2.3079
-0.892199
-2.21614
-2.2561
-0.982095
-2.47661
0.756964
-1.42974
2.10306
0.360057
2.36196
1.98413
1.40069
2.61345
-0.284575
1.92242
-1.8236
0.255456
-2.42169
-1.54573
-1.76986
-2.56966
-0.203425
-2.29925
1.46972
-0.873089
2.38584
0.985193
2.0717
2.33483
0.688358
2.49737
-1.05061
1.39951
-2.2462
-0.392634
-2.2789
-1.96356
-1.12873
-2.51729
0.612694
-1.78237
2.0449
-0.146462
2.42342
1.54476
-2.41388
-1.63739
-1.93741
-0.0130147
-0.450211
1.61699
1.28027
2.40946
2.3563
1.95591
2.21474
0.491359
0.919043
-1.22744
-0.869736
-2.31303
-2.23017
-2.20603
-2.45539
-0.962396
-1.41795
0.775882
0.361533
2.11155
1.97686
2.35579
2.59995
1.38287
1.9053
-0.305543
0.237579
-1.83807
-1.56064
-2.42359
-2.57729
-1.75935
-2.29596
-0.186671
-0.857789
1.48358
1.00963
2.38903
2.36159
2.06138
2.51769
0.667921
1.40582
-1.07286
-0.403724
-2.2606
-1.98948
-2.27852
-2.5501
-1.11232
-1.81149
0.639994
-0.162322
2.07337
1.54715
2.44255
-2.40752
-1.95309
-1.61434
-0.48301
0.0140745
1.24353
1.63467
2.33083
2.41016
2.21067
1.94121
0.937122
0.470496
-0.83784
-1.24264
-2.19748
-2.31431
-2.43349
-2.1926
-1.41255
-0.940794
0.351622
0.795372
1.95767
2.12007
2.57869
2.35011
1.8874
1.36647
0.225857
-0.324504
-1.56528
-1.85071
-2.57464
-2.42446
-2.28589
-1.74875
-0.840914
-0.170312
1.03068
1.49714
2.38175
2.39216
2.53044
2.05081
1.40548
0.646253
-0.419146
-1.09793
-2.01665
-2.27916
-2.58089
-2.28251
-1.83558
-1.09887
-0.171103
0.667191
1.55706
2.1052
2.46785
-1.96636
-2.39937
-0.514227
-1.5916
1.20716
0.0384332
2.30552
1.6484
2.20825
2.40767
0.959353
1.92573
-0.800132
0.451632
-2.15981
-1.25427
-2.41046
-2.31234
-1.41162
-2.17767
0.332552
-0.919661
1.92799
0.813519
2.54994
2.12798
1.86836
2.34551
0.219907
1.3527
-1.55966
-0.340344
-2.56137
-1.86107
-2.26892
-2.42447
-0.823194
-1.73824
1.04677
-0.153931
2.39339
1.51176
2.5341
2.39742
1.39821
2.04236
-0.437745
0.625229
-2.04289
-1.12486
-2.60714
-2.30209
-1.85264
-2.29206
-0.171904
-1.09015
1.57425
0.692271
2.49811
2.1385
-1.97444
-0.539646
-2.38898
1.17494
-1.57056
2.2819
0.0581578
2.20591
1.65709
0.981611
2.40234
-0.761395
1.91071
-2.12058
0.435635
-2.38708
-1.26287
-1.41322
-2.30938
0.307782
-2.16451
1.8912
-0.901953
2.5159
0.828707
1.84872
2.13523
0.219016
2.34297
-1.54499
1.34248
-2.53874
-0.353115
-2.24622
-1.87019
-0.80569
-2.42503
1.05688
-1.72863
2.39567
-0.136964
2.52853
1.52939
1.3848
2.40754
-0.457907
2.03875
-2.06618
0.606735
-2.62716
-1.15299
-1.86199
-2.32978
-0.165198
-2.30839
1.59723
-1.08797
2.53122
0.713157
2.17107
-0.557033
-1.97708
1.15001
-2.37796
2.26216
-1.55345
2.20334
0.0719887
1.00088
1.66123
-0.726224
2.39597
-2.08398
1.89796
-2.36527
0.422851
-1.4163
-1.27021
0.280686
-2.3087
1.85153
-2.15654
2.47995
-0.889834
1.83006
0.840673
0.222866
2.14289
-1.5229
2.3436
-2.50892
1.33579
-2.2198
-0.36439
-0.789948
-1.88064
1.06007
-2.42845
2.38853
-1.7209
2.51462
-0.118641
1.36703
1.55218
-0.477251
2.42506
-2.0843
2.04197
-2.6398
0.591839
-1.86397
-1.18209
-0.152849
-2.3625
1.62315
-2.33201
2.56426
-1.09317
2.20057
0.7283
-0.566809
1.13376
-1.97658
2.24822
-2.36924
2.20138
-1.54216
1.01589
0.0801321
-0.697815
1.66305
-2.05369
2.39142
-2.34743
1.88921
-1.42087
0.412823
0.253736
-1.27877
1.81275
-2.31345
2.44558
-2.15585
1.81435
-0.883402
0.231513
0.851022
-1.49494
2.15299
-2.47417
2.34823
-2.19189
1.33137
-0.777681
-0.377138
1.0555
-1.89585
2.37212
-2.43717
2.49358
-1.71564
1.34719
-0.0979902
-0.492935
1.58171
-2.09475
2.45125
-2.64382
2.05247
-1.85934
0.580471
-0.137607
-1.21204
1.64821
-2.39957
2.59363
-2.36184
2.22466
-1.10503
0.73712
1.12532
-0.571769
2.24096
-1.97666
2.2014
-2.36569
1.02704
-1.53719
-0.677266
0.0847253
-2.03182
1.66612
-2.33548
2.39182
-1.42734
1.88552
0.228326
0.404241
1.77744
-1.29103
2.41538
-2.32552
1.80307
-2.1623
0.244801
-0.880313
-1.46251
0.863
-2.4364
2.16779
-2.16425
2.35684
-0.770016
1.32683
1.04274
-0.394962
2.34667
-1.91891
2.46647
-2.45269
1.32718
-1.71278
-0.502453
-0.0742012
-2.09504
1.6183
-2.63778
2.48533
-1.84865
2.06895
-0.12214
0.57184
1.66835
-1.24212
2.61535
-2.43853
2.2411
-2.39468
0.739872
-1.12121
1.12206
2.23987
-0.57593
2.20447
-1.98092
1.03584
-2.36878
-0.663783
-1.53711
-2.0186
0.0894182
-2.33003
1.67438
-1.43591
2.39946
0.205198
1.88676
1.74706
0.395237
2.39065
-1.3088
1.79648
-2.34477
0.261765
-2.17328
-1.42735
-0.876439
-2.39736
0.880388
-2.13782
2.18892
-0.766978
2.36833
1.0223
1.3193
2.3129
-0.420778
2.43402
-1.95136
1.30786
-2.47484
-0.504468
-1.71142
-2.08349
-0.0472109
-2.62034
1.66035
-1.83179
2.52439
-0.10823
2.08863
1.68013
0.565174
2.62572
-1.27022
2.24764
-2.47496
0.737088
-2.42553
-1.13824
2.24336
1.12066
2.21109
-0.582981
1.04407
-1.99159
-0.655477
-2.37798
-2.01275
-1.53886
-2.33044
0.0982018
-1.44608
1.69081
0.185114
2.41492
1.72247
1.89133
2.3717
0.383708
1.79377
-1.33272
0.28036
-2.36926
-1.39208
-2.18463
-2.359
-0.867229
-2.11305
0.906055
-0.767452
2.21659
0.996212
2.38077
2.27257
1.30642
2.39692
-0.455581
1.28903
-1.99225
-0.499462
-2.50164
-2.06015
-1.71037
-2.59095
-0.0181738
-1.80822
1.70417
-0.0963411
2.56378
1.68171
2.10824
2.62203
0.560439
2.2422
-1.29271
0.72904
-2.50302
-1.15278
-2.44877
2.24961
2.2213
1.11823
1.05331
-0.595228
-0.650141
-2.00899
-2.01235
-2.39124
-2.33544
-1.53896
-1.45692
0.114071
0.169027
1.71624
1.70455
2.43668
2.35877
1.89647
1.7938
0.367687
0.297891
-1.36227
-1.36011
-2.39589
-2.32402
-2.19213
-2.09063
-0.849373
-0.769631
0.940888
0.967838
2.24933
2.22887
2.39202
2.35671
1.28739
1.26994
-0.497704
-0.489706
-2.03799
-2.02731
-2.52973
-2.55069
-1.7088
-1.77771
0.0102176
-0.085652
1.74448
1.67329
2.59805
2.60335
2.12492
2.22341
0.558738
0.715383
-1.30513
-1.16279
-2.51694
-2.45978
2.23503
2.25726
1.0649
1.11306
-0.645785
-0.61339
-2.01573
-2.03194
-2.34403
-2.40592
-1.46785
-1.53482
0.157596
0.137975
1.69426
1.74916
2.3526
2.46136
1.7961
1.89889
0.312158
0.345795
-1.33498
-1.39621
-2.29585
-2.42162
-2.07201
-2.19292
-0.771993
-0.82206
0.941145
0.983321
2.18639
2.28449
2.31624
2.40056
1.25029
1.26366
-0.478377
-0.542789
-1.98926
-2.08324
-2.50286
-2.55548
-1.74106
-1.70688
-0.0747405
0.0339021
1.65707
1.77531
2.57106
2.62223
2.19122
2.13687
0.695342
0.561962
-1.16817
-1.30339
-2.45639
-2.51278
2.25255
1.08023
2.26563
-0.640669
1.10452
-2.02171
-0.63708
-2.35609
-2.05884
-1.4795
-2.41999
0.15041
-1.52547
1.69209
0.168648
2.35434
1.78622
1.80157
2.48489
0.322568
1.89565
-1.31919
0.317524
-2.2779
-1.43294
-2.05961
-2.44441
-0.774266
-2.18647
0.919566
-0.787237
2.15026
1.0297
2.27973
2.319
1.23111
2.40616
-0.468342
1.2387
-1.95142
-0.584756
-2.45261
-2.12212
-1.70078
-2.576
-0.0625712
-1.70589
1.63657
0.0483155
2.52891
1.79133
2.14755
2.63286
0.668543
2.14366
-1.17049
0.571905
-2.43963
-1.28531
-2.48975
1.10072
2.27431
-0.632946
2.27439
-2.02923
1.09238
-2.37224
-0.665653
-1.49388
-2.08837
0.145284
-2.4325
1.69707
-1.51149
2.36492
0.203485
1.81226
1.82353
0.330674
2.50379
-1.31301
1.88511
-2.27243
0.283372
-2.05631
-1.47091
-0.777764
-2.46366
0.904783
-2.17463
2.1248
-0.749052
2.25208
1.07533
1.21504
2.35014
-0.461003
2.40996
-1.91879
1.2173
-2.40613
-0.61734
-1.66108
-2.14969
-0.0492635
-2.58982
1.6156
-1.70794
2.48233
0.0495597
2.09656
1.7892
0.635903
2.62861
-1.17209
2.14583
-2.41318
0.589357
-2.45066
-1.25169
1.12772
-0.620528
2.30033
-2.03686
2.28288
-2.39298
1.07624
-1.51372
-0.698745
0.138334
-2.11969
1.70621
-2.44323
2.38385
-1.49417
1.83033
0.239833
0.339868
1.85812
-1.31403
2.51623
-2.27949
1.86746
-2.06435
0.244935
-0.785084
-1.50879
0.896021
-2.48005
2.11221
-2.16082
2.23748
-0.7127
1.20581
1.11562
-0.455626
2.37615
-1.89456
2.41386
-2.36917
1.20408
-1.62716
-0.63558
-0.0365155
-2.16301
1.59698
-2.59682
2.43731
-1.71493
2.04418
0.035623
0.60017
1.76839
-1.17461
2.61047
-2.38203
2.14434
-2.40124
0.61335
-1.20634
-0.601429
1.16174
-2.04237
2.32964
-2.41766
2.28963
-1.54118
1.05534
0.125133
-0.736045
1.7148
-2.15207
2.40856
-2.45195
1.85676
-1.4744
0.354081
0.276062
-1.31768
1.88886
-2.29638
2.52258
-2.08418
1.84462
-0.799113
0.204695
0.890343
-1.54536
2.11173
-2.49495
2.23804
-2.14888
1.20701
-0.683025
-0.449678
1.14684
-1.87938
2.39608
-2.34556
2.4197
-1.60396
1.20218
-0.0273584
-0.636938
1.58185
-2.16135
2.39892
-2.59777
1.99691
-1.72755
0.565842
0.00731487
-1.17805
1.73138
-2.35082
2.58119
-2.34844
2.13995
-1.15534
0.641029
-0.57449
-2.04307
1.20176
-2.44403
2.35994
-1.57638
2.2926
0.102413
1.02904
1.71766
-0.776696
2.4346
-2.18411
1.89036
-2.45785
0.376107
-1.45217
-1.31859
0.311956
-2.31813
1.91636
-2.11389
2.52498
-0.821646
1.81984
0.883699
0.165652
2.11975
-1.57929
2.25284
-2.50948
1.2207
-2.14193
-0.43995
-0.663574
-1.87133
1.1666
-2.33626
2.40935
-1.59485
2.42825
-0.0251692
1.21239
1.56943
-0.621647
2.37013
-2.14575
1.96033
-2.59332
0.538147
-1.74457
-1.18064
-0.0316921
-2.32243
1.68306
-2.29862
2.54445
-1.10552
2.13284
0.668297
-2.03686
-0.540267
-2.4686
1.24502
-1.61686
2.38805
0.0696033
2.29008
1.71103
0.997758
2.45698
-0.818819
1.92772
-2.21373
0.406411
-2.45962
-1.31248
-1.42699
-2.33892
0.348123
-2.14929
1.94223
-0.852414
2.52633
0.872447
1.79679
2.13105
0.130967
2.27805
-1.60903
1.24632
-2.52393
-0.423923
-2.14157
-1.86695
-0.656199
-2.3394
1.17364
-1.6006
2.41524
-0.0324952
2.43861
1.55759
1.23298
2.35136
-0.592168
1.93775
-2.11828
0.521513
-2.58339
-1.17946
-1.7628
-2.29755
-0.0756993
-2.25617
1.62956
-1.06279
2.50397
0.690818
2.12249
-2.02341
-2.48801
-0.501445
-1.65823
1.28765
0.0294543
2.41119
1.69423
2.2817
2.47187
0.963424
1.9644
-0.859659
0.442809
-2.23888
-1.29763
-2.45643
-2.35386
-1.39876
-2.1851
0.384931
-0.888907
1.968
0.854842
2.5293
2.14052
1.77859
2.30799
0.103488
1.28064
-1.63265
-0.400989
-2.53748
-1.86278
-2.14762
-2.35101
-0.661065
-1.61915
1.16746
-0.0500362
2.41258
1.54409
2.44835
2.34088
1.26031
1.92943
-0.552295
0.518256
-2.08116
-1.17185
-2.56714
-2.27531
-1.77795
-2.22291
-0.118358
-1.03089
1.57669
0.705113
2.46277
2.10819
-2.50082
-2.00484
-1.69595
-0.462174
-0.0128722
1.32609
1.67011
2.42836
2.47839
2.26924
1.99662
0.929081
0.481294
-0.896742
-1.27543
-2.2588
-2.36064
-2.44908
-2.21669
-1.36872
-0.92705
0.421791
0.83168
1.99411
2.14488
2.53532
2.33703
1.76725
1.31871
0.085345
-0.372891
-1.64804
-1.85662
-2.54816
-2.36656
-2.15847
-1.64636
-0.677066
-0.0761124
1.1481
1.5277
2.39976
2.33584
2.45412
1.93307
1.28989
0.527832
-0.50621
-1.15677
-2.03646
-2.2543
-2.54343
-2.19855
-1.78601
-1.01107
-0.154332
0.709507
1.52891
2.08947
2.42285
-2.50851
-1.72747
-1.98537
-0.0519682
-0.426526
1.6441
1.35881
2.47911
2.44122
2.0229
2.25615
0.517793
0.897589
-1.24969
-0.929504
-2.36031
-2.27522
-2.24167
-2.44039
-0.962743
-1.3394
0.805878
0.457115
2.14379
2.01983
2.36145
2.54422
1.35546
1.76322
-0.343072
0.077826
-1.84834
-1.65312
-2.38254
-2.55331
-1.67731
-2.17146
-0.107099
-0.702327
1.50895
1.11604
2.33386
2.37536
1.94489
2.45265
0.547107
1.31749
-1.13541
-0.457694
-2.23395
-1.98617
-2.18182
-2.51182
-1.0023
-1.78456
0.704411
-0.180553
2.06669
1.48873
2.38548
-1.75385
-2.51535
-0.0846122
-1.96962
1.62204
-0.396524
2.47918
1.38759
2.04502
2.45393
0.549966
2.24607
-1.2251
0.869791
-2.35678
-0.960331
-2.2609
-2.29228
-0.993596
-2.43424
0.781212
-1.31352
2.13967
0.488978
2.3806
2.04338
1.38759
2.55425
-0.315348
1.76548
-1.83982
0.0813512
-2.39749
-1.64595
-1.70793
-2.55011
-0.138624
-2.18361
1.4902
-0.734501
2.33403
1.07232
1.96127
2.33879
0.571659
2.4418
-1.11104
1.33998
-2.21529
-0.409877
-2.17159
-1.93263
-1.00237
-2.47346
0.692006
-1.77369
2.04151
-0.19654
2.35173
1.45683
-1.77972
-0.111583
-2.52687
1.60751
-1.96037
2.48441
-0.370491
2.06749
1.41741
0.578392
2.47153
-1.20511
2.24082
-2.3553
0.843186
-2.2783
-0.994327
-1.02007
-2.31486
0.760515
-2.43351
2.13648
-1.29233
2.39702
0.516052
1.4148
2.06228
-0.292347
2.56249
-1.83385
1.77201
-2.41227
0.0956866
-1.7364
-1.62508
-0.167037
-2.53612
1.47474
-2.19224
2.33729
-0.771094
1.98018
1.01882
0.597398
2.29094
-1.0879
2.42126
-2.20078
1.35583
-2.16771
-0.365304
-1.00899
-1.87885
0.675562
-2.43142
2.01672
-1.75606
2.32299
-0.203939
1.43301
-0.137941
-1.8117
1.59999
-2.5472
2.49879
-1.95666
2.09597
-0.342768
0.606758
1.45507
-1.19034
2.49764
-2.36042
2.23873
-2.29954
0.812113
-1.0457
-1.0374
0.744121
-2.34578
2.13791
-2.4377
2.41531
-1.27451
1.43991
0.537819
-0.274178
2.07366
-1.83279
2.5654
-2.4295
1.78057
-1.76354
0.12041
-0.190828
-1.58974
1.4654
-2.50995
2.34592
-2.19549
2.00178
-0.809704
0.62199
0.958426
-1.06964
2.23456
-2.19358
2.39276
-2.17135
1.36505
-1.02068
-0.326024
0.658381
-1.82871
1.99586
-2.39039
2.30147
-1.73595
1.41708
-0.205408
-0.171444
1.59447
-1.8558
2.52254
-2.57683
2.13515
-1.95297
0.640772
-0.305117
-1.17793
1.50654
-2.37392
2.53231
-2.32994
2.23424
-1.07618
0.769533
0.729313
-1.0932
2.14555
-2.38336
2.44017
-2.44204
1.46801
-1.25661
-0.258083
0.553803
-1.83727
2.07428
-2.45213
2.55976
-1.79249
1.78959
-0.211376
0.155146
1.46321
-1.54016
2.36237
-2.47185
2.02807
-2.19276
0.645672
-0.848108
-1.05803
0.894968
-2.19641
2.17421
-2.18439
2.35998
-1.03729
1.36892
0.642789
-0.293787
1.98244
-1.78653
2.29005
-2.35587
1.40966
-1.71801
-0.203228
1.58265
-0.219877
2.55153
-1.91466
2.18684
-2.61144
0.686266
-1.94036
-1.16206
-0.249346
-2.39373
1.57424
-2.3724
2.57101
-1.11741
2.21929
0.710836
0.709922
2.15784
-1.16053
2.47455
-2.42062
1.50468
-2.43888
-0.239073
-1.23522
-1.84546
0.562419
-2.48211
2.06072
-1.82752
2.54369
-0.232626
1.79882
1.46656
0.19939
2.3878
-1.47812
2.06192
-2.42407
0.671026
-2.18498
-1.05227
-0.884429
-2.21036
0.833121
-2.20877
2.11582
-1.06003
2.32792
0.629526
1.36951
1.97899
-0.270169
2.29171
-1.75662
1.41245
-2.33291
-0.198356
-1.70596
1.55555
2.57811
-0.288236
2.24885
-1.98599
0.747252
-2.64256
-1.13554
-1.90917
-2.41415
-0.170474
-2.42597
1.65537
-1.17342
2.60528
0.682378
2.18614
2.17022
0.632168
2.51829
-1.23263
1.55406
-2.44733
-0.211246
-2.42114
-1.85316
-1.20968
-2.51929
0.560258
-1.87235
2.03038
-0.260017
2.51734
1.47121
1.80918
2.42124
0.251916
2.10564
-1.40752
0.701973
-2.37108
-1.04904
-2.1745
-2.23432
-0.917194
-2.24564
0.778018
-1.09089
2.06612
0.61742
2.30204
1.9862
1.36907
2.30875
-0.256577
1.42784
-1.74272
-0.190088
-2.32524
-1.70159
2.5931
1.50627
2.31532
-0.376736
0.824384
-2.06282
-1.09203
-2.65998
-2.42711
-1.85227
-2.48564
-0.0691288
-1.24488
1.74198
0.638609
2.62541
2.17626
2.13045
2.56781
0.540821
1.61745
-1.29905
-0.169506
-2.45418
-1.85479
-2.38611
-2.56096
-1.18365
-1.9288
0.54286
-0.298909
1.98273
1.47126
2.48329
2.4593
1.8219
2.15987
0.309876
0.742544
-1.33449
-1.04336
-2.3193
-2.26499
-2.16472
-2.29469
-0.945155
-1.1321
0.734857
0.603555
2.03172
2.00253
2.28739
2.34192
1.36924
1.45813
-0.254451
-0.176221
-1.74752
-1.70449
-2.33467
2.58839
2.37802
1.43207
0.914401
-0.480513
-1.02787
-2.13534
-2.4244
-2.65505
-2.54349
-1.7679
-1.32848
0.0479353
0.576827
1.82302
2.16941
2.62383
2.61696
2.05354
1.69271
0.445086
-0.111055
-1.34942
-1.84463
-2.43694
-2.60225
-2.33781
-1.99594
-1.16428
-0.352912
0.507125
1.46057
1.92075
2.49671
2.44609
2.22312
1.83764
0.795614
0.36844
-1.02977
-1.26707
-2.2973
-2.27631
-2.35386
-2.15952
-1.18537
-0.967071
0.58394
0.70862
2.02423
2.01826
2.38978
2.28754
1.50477
1.37046
-0.153757
-0.265472
-1.71229
-1.77257
-2.36083
2.42839
2.55908
1.0108
1.33529
-0.943404
-0.590957
-2.4
-2.19384
-2.59069
-2.62351
-1.41767
-1.66082
0.497764
0.169317
2.14474
1.88788
2.65849
2.59809
1.77464
1.96277
-0.0361099
0.356205
-1.81827
-1.37726
-2.63719
-2.39876
-2.07005
-2.28607
-0.422856
-1.15922
1.43423
0.454036
2.5275
1.85163
2.29184
2.41166
0.862074
1.85618
-1.00344
0.421466
-2.32534
-1.21416
-2.41952
-2.24968
-1.25122
-2.16213
0.554321
-0.98134
2.04578
0.703663
2.44866
2.0296
1.56768
2.30363
-0.119716
1.37137
-1.72103
-0.291566
-2.40132
-1.81813
2.4597
1.10534
2.50469
-0.842997
1.2227
-2.35159
-0.69796
-2.61975
-2.23158
-1.50436
-2.56714
0.405453
-1.54149
2.1001
0.28201
2.6857
1.92975
1.85622
2.55231
0.0520678
1.86982
-1.77361
0.284538
-2.65994
-1.38162
-2.14531
-2.34907
-0.506529
-2.24287
1.38977
-1.17265
2.5462
0.390145
2.36105
1.78622
0.940652
2.38673
-0.961138
1.87688
-2.34329
0.462617
-2.4867
-1.18405
-1.32857
-2.24564
0.511091
-2.17413
2.06092
-0.985559
2.513
0.723284
1.64483
2.06697
-0.0717372
2.3339
-1.72586
1.36866
-2.45191
-0.334733
-1.88293
1.18988
2.46861
-0.73403
2.42937
-2.28123
1.10388
-2.62638
-0.792439
-1.58083
-2.24643
0.306131
-2.49351
2.03645
-1.42341
2.69388
0.374893
1.93008
1.94751
0.14785
2.49615
-1.71125
1.7881
-2.66602
0.237713
-2.21508
-1.366
-0.599072
-2.29947
1.3275
-2.21755
2.54879
-1.203
2.42527
0.326702
1.02804
1.73687
-0.901811
2.37788
-2.34626
1.89906
-2.54972
0.486223
-1.41465
-1.18325
0.452235
-2.26755
2.06363
-2.1945
2.57601
-0.976468
1.73248
0.769275
-0.0086503
2.12845
-1.72165
2.37348
-2.50671
1.35758
-1.96393
-0.396463
1.25834
-0.625174
2.45585
-2.19474
2.34089
-2.61031
0.989171
-1.64144
-0.868217
0.206731
-2.24119
1.95748
-2.41391
2.68111
-1.32005
1.98988
0.441086
0.24447
1.94539
-1.63435
2.44186
-2.65317
1.72978
-2.27312
0.220163
-0.694041
-1.33586
1.25036
-2.25947
2.53332
-2.21402
2.47932
-1.2438
1.11934
0.276337
-0.826734
1.71452
-2.33104
2.38984
-2.60295
1.92127
-1.50497
0.487517
0.377901
-1.21547
2.04922
-2.3148
2.6307
-2.21908
1.82533
-0.950357
0.0690972
0.841252
-1.70364
2.20882
-2.55862
2.41502
-2.05604
1.33295
-0.476739
-0.524574
1.30778
-2.10025
2.42597
-2.57496
2.24906
-1.68358
0.887849
0.113594
-0.922692
1.8687
-2.22239
2.64837
-2.3406
2.03148
-1.24195
0.335259
0.478431
-1.54792
1.93056
-2.6216
2.40071
-2.31472
1.70319
-0.784667
0.232906
1.16323
-1.29676
2.50004
-2.23499
2.51893
-2.23152
1.20876
-1.28683
-0.739456
0.249185
-2.29666
1.72555
-2.64144
2.4233
-1.5939
1.93992
0.290628
0.462542
2.01523
-1.28068
2.67083
-2.38229
1.91707
-2.24105
0.159243
-0.903922
-1.66832
0.936062
-2.60016
2.29995
-2.15206
2.44996
-0.573194
1.29055
-0.438308
-2.00643
1.33867
-2.52651
2.3863
-1.70765
2.16401
0.0315231
0.806812
1.77646
-0.956503
2.59929
-2.19808
2.05344
-2.2841
0.414719
-1.19528
-1.45789
0.488486
-2.57389
1.91003
-2.33745
2.37975
-0.864923
1.71099
1.07204
0.272827
2.45113
-1.25484
2.54133
-2.22937
1.29032
-2.2668
-0.645444
-1.32467
-2.24459
0.250771
-2.66182
1.76998
-1.6754
2.47339
0.195245
1.9488
1.96202
0.408787
2.69183
-1.37446
2.00113
-2.46066
0.257563
-2.25229
-1.61434
-0.835622
-2.62447
1.04759
-2.24342
2.39174
-0.680684
2.47018
1.22867
-1.92103
-0.369732
-2.47232
1.35435
-1.71649
2.34521
-0.0366416
2.09451
1.68707
0.750174
2.53944
-0.972463
2.05712
-2.17571
0.47939
-2.25123
-1.37012
-1.18175
-2.51446
0.47484
-2.34137
1.88854
-0.930434
2.38045
0.982784
1.74946
2.39045
0.332065
2.54561
-1.21763
1.35868
-2.24419
-0.551283
-2.31466
-2.17872
-1.35108
-2.66292
0.281932
-1.74391
1.84151
0.0981853
2.5301
1.89279
1.94044
2.69165
0.326768
2.07146
-1.48779
0.358087
-2.53792
-1.54322
-2.24541
-2.6269
-0.746953
-2.32147
1.16705
-0.791555
2.47379
1.14901
2.46977
-1.84989
-2.41968
-0.319664
-1.71454
1.35975
-0.0899093
2.31058
1.60612
2.04688
2.47546
0.719337
2.04634
-0.974174
0.528199
-2.16054
-1.28963