# vtk DataFile Version 3.1
vtk output
ASCII
DATASET POLYDATA
POINTS 4260 FLOAT
2.83277e-16          -1    -3.14159
-0.104528 -0.994522  -3.14159
 0.104528 -0.994522  -3.14159
-0.207912 -0.978148  -3.14159
 0.207912 -0.978148  -3.14159
-0.309017 -0.951057  -3.14159
 0.309017 -0.951057  -3.14159
-0.406737 -0.913545  -3.14159
 0.406737 -0.913545  -3.14159
     -0.5 -0.866025  -3.14159
      0.5 -0.866025  -3.14159
-0.587785 -0.809017  -3.14159
 0.587785 -0.809017  -3.14159
-0.669131 -0.743145  -3.14159
 0.669131 -0.743145  -3.14159
-0.743145 -0.669131  -3.14159
 0.743145 -0.669131  -3.14159
-0.809017 -0.587785  -3.14159
 0.809017 -0.587785  -3.14159
-0.866025      -0.5  -3.14159
0.866025     -0.5 -3.14159
-0.913545 -0.406737  -3.14159
 0.913545 -0.406737  -3.14159
-0.951057 -0.309017  -3.14159
 0.951057 -0.309017  -3.14159
-0.978148 -0.207912  -3.14159
 0.978148 -0.207912  -3.14159
-0.994522 -0.104528  -3.14159
 0.994522 -0.104528  -3.14159
          -1 -5.66554e-16     -3.14159
       1        0 -3.14159
-0.994522  0.104528  -3.14159
0.994522 0.104528 -3.14159
-0.978148  0.207912  -3.14159
0.978148 0.207912 -3.14159
-0.951057  0.309017  -3.14159
0.951057 0.309017 -3.14159
-0.913545  0.406737  -3.14159
0.913545 0.406737 -3.14159
-0.866025       0.5  -3.14159
0.866025      0.5 -3.14159
-0.809017  0.587785  -3.14159
0.809017 0.587785 -3.14159
-0.743145  0.669131  -3.14159
0.743145 0.669131 -3.14159
-0.669131  0.743145  -3.14159
0.669131 0.743145 -3.14159
-0.587785  0.809017  -3.14159
0.587785 0.809017 -3.14159
    -0.5 0.866025 -3.14159
     0.5 0.866025 -3.14159
-0.406737  0.913545  -3.14159
0.406737 0.913545 -3.14159
-0.309017  0.951057  -3.14159
0.309017 0.951057 -3.14159
-0.207912  0.978148  -3.14159
0.207912 0.978148 -3.14159
-0.104528  0.994522  -3.14159
0.104528 0.994522 -3.14159
-1.83697e-16            1     -3.14159
-0.052336  -0.99863   -3.0509
0.052336 -0.99863  -3.0509
-0.156434 -0.987688   -3.0509
 0.156434 -0.987688   -3.0509
-0.258819 -0.965926   -3.0509
 0.258819 -0.965926   -3.0509
-0.358368  -0.93358   -3.0509
0.358368 -0.93358  -3.0509
 -0.45399 -0.891007   -3.0509
  0.45399 -0.891007   -3.0509
-0.544639 -0.838671   -3.0509
 0.544639 -0.838671   -3.0509
 -0.62932 -0.777146   -3.0509
  0.62932 -0.777146   -3.0509
-0.707107 -0.707107   -3.0509
 0.707107 -0.707107   -3.0509
-0.777146  -0.62932   -3.0509
0.777146 -0.62932  -3.0509
-0.838671 -0.544639   -3.0509
 0.838671 -0.544639   -3.0509
-0.891007  -0.45399   -3.0509
0.891007 -0.45399  -3.0509
 -0.93358 -0.358368   -3.0509
  0.93358 -0.358368   -3.0509
-0.965926 -0.258819   -3.0509
 0.965926 -0.258819   -3.0509
-0.987688 -0.156434   -3.0509
 0.987688 -0.156434   -3.0509
 -0.99863 -0.052336   -3.0509
  0.99863 -0.052336   -3.0509
-0.99863 0.052336  -3.0509
 0.99863 0.052336  -3.0509
-0.987688  0.156434   -3.0509
0.987688 0.156434  -3.0509
-0.965926  0.258819   -3.0509
0.965926 0.258819  -3.0509
-0.93358 0.358368  -3.0509
 0.93358 0.358368  -3.0509
-0.891007   0.45399   -3.0509
0.891007  0.45399  -3.0509
-0.838671  0.544639   -3.0509
0.838671 0.544639  -3.0509
-0.777146   0.62932   -3.0509
0.777146  0.62932  -3.0509
-0.707107  0.707107   -3.0509
0.707107 0.707107  -3.0509
-0.62932 0.777146  -3.0509
 0.62932 0.777146  -3.0509
-0.544639  0.838671   -3.0509
0.544639 0.838671  -3.0509
-0.45399 0.891007  -3.0509
 0.45399 0.891007  -3.0509
-0.358368   0.93358   -3.0509
0.358368  0.93358  -3.0509
-0.258819  0.965926   -3.0509
0.258819 0.965926  -3.0509
-0.156434  0.987688   -3.0509
0.156434 0.987688  -3.0509
-0.052336   0.99863   -3.0509
0.052336  0.99863  -3.0509
6.12323e-17          -1    -2.96021
-0.104528 -0.994522  -2.96021
 0.104528 -0.994522  -2.96021
-0.207912 -0.978148  -2.96021
 0.207912 -0.978148  -2.96021
-0.309017 -0.951057  -2.96021
 0.309017 -0.951057  -2.96021
-0.406737 -0.913545  -2.96021
 0.406737 -0.913545  -2.96021
     -0.5 -0.866025  -2.96021
      0.5 -0.866025  -2.96021
-0.587785 -0.809017  -2.96021
 0.587785 -0.809017  -2.96021
-0.669131 -0.743145  -2.96021
 0.669131 -0.743145  -2.96021
-0.743145 -0.669131  -2.96021
 0.743145 -0.669131  -2.96021
-0.809017 -0.587785  -2.96021
 0.809017 -0.587785  -2.96021
-0.866025      -0.5  -2.96021
0.866025     -0.5 -2.96021
-0.913545 -0.406737  -2.96021
 0.913545 -0.406737  -2.96021
-0.951057 -0.309017  -2.96021
 0.951057 -0.309017  -2.96021
-0.978148 -0.207912  -2.96021
 0.978148 -0.207912  -2.96021
-0.994522 -0.104528  -2.96021
 0.994522 -0.104528  -2.96021
          -1 -5.66554e-16     -2.96021
          1 2.77556e-17    -2.96021
-0.994522  0.104528  -2.96021
0.994522 0.104528 -2.96021
-0.978148  0.207912  -2.96021
0.978148 0.207912 -2.96021
-0.951057  0.309017  -2.96021
0.951057 0.309017 -2.96021
-0.913545  0.406737  -2.96021
0.913545 0.406737 -2.96021
-0.866025       0.5  -2.96021
0.866025      0.5 -2.96021
-0.809017  0.587785  -2.96021
0.809017 0.587785 -2.96021
-0.743145  0.669131  -2.96021
0.743145 0.669131 -2.96021
-0.669131  0.743145  -2.96021
0.669131 0.743145 -2.96021
-0.587785  0.809017  -2.96021
0.587785 0.809017 -2.96021
    -0.5 0.866025 -2.96021
     0.5 0.866025 -2.96021
-0.406737  0.913545  -2.96021
0.406737 0.913545 -2.96021
-0.309017  0.951057  -2.96021
0.309017 0.951057 -2.96021
-0.207912  0.978148  -2.96021
0.207912 0.978148 -2.96021
-0.104528  0.994522  -2.96021
0.104528 0.994522 -2.96021
-1.83697e-16            1     -2.96021
-0.052336  -0.99863  -2.86952
0.052336 -0.99863 -2.86952
-0.156434 -0.987688  -2.86952
 0.156434 -0.987688  -2.86952
-0.258819 -0.965926  -2.86952
 0.258819 -0.965926  -2.86952
-0.358368  -0.93358  -2.86952
0.358368 -0.93358 -2.86952
 -0.45399 -0.891007  -2.86952
  0.45399 -0.891007  -2.86952
-0.544639 -0.838671  -2.86952
 0.544639 -0.838671  -2.86952
 -0.62932 -0.777146  -2.86952
  0.62932 -0.777146  -2.86952
-0.707107 -0.707107  -2.86952
 0.707107 -0.707107  -2.86952
-0.777146  -0.62932  -2.86952
0.777146 -0.62932 -2.86952
-0.838671 -0.544639  -2.86952
 0.838671 -0.544639  -2.86952
-0.891007  -0.45399  -2.86952
0.891007 -0.45399 -2.86952
 -0.93358 -0.358368  -2.86952
  0.93358 -0.358368  -2.86952
-0.965926 -0.258819  -2.86952
 0.965926 -0.258819  -2.86952
-0.987688 -0.156434  -2.86952
 0.987688 -0.156434  -2.86952
 -0.99863 -0.052336  -2.86952
  0.99863 -0.052336  -2.86952
-0.99863 0.052336 -2.86952
 0.99863 0.052336 -2.86952
-0.987688  0.156434  -2.86952
0.987688 0.156434 -2.86952
-0.965926  0.258819  -2.86952
0.965926 0.258819 -2.86952
-0.93358 0.358368 -2.86952
 0.93358 0.358368 -2.86952
-0.891007   0.45399  -2.86952
0.891007  0.45399 -2.86952
-0.838671  0.544639  -2.86952
0.838671 0.544639 -2.86952
-0.777146   0.62932  -2.86952
0.777146  0.62932 -2.86952
-0.707107  0.707107  -2.86952
0.707107 0.707107 -2.86952
-0.62932 0.777146 -2.86952
 0.62932 0.777146 -2.86952
-0.544639  0.838671  -2.86952
0.544639 0.838671 -2.86952
-0.45399 0.891007 -2.86952
 0.45399 0.891007 -2.86952
-0.358368   0.93358  -2.86952
0.358368  0.93358 -2.86952
-0.258819  0.965926  -2.86952
0.258819 0.965926 -2.86952
-0.156434  0.987688  -2.86952
0.156434 0.987688 -2.86952
-0.052336   0.99863  -2.86952
0.052336  0.99863 -2.86952
6.12323e-17          -1    -2.77883
-0.104528 -0.994522  -2.77883
 0.104528 -0.994522  -2.77883
-0.207912 -0.978148  -2.77883
 0.207912 -0.978148  -2.77883
-0.309017 -0.951057  -2.77883
 0.309017 -0.951057  -2.77883
-0.406737 -0.913545  -2.77883
 0.406737 -0.913545  -2.77883
     -0.5 -0.866025  -2.77883
      0.5 -0.866025  -2.77883
-0.587785 -0.809017  -2.77883
 0.587785 -0.809017  -2.77883
-0.669131 -0.743145  -2.77883
 0.669131 -0.743145  -2.77883
-0.743145 -0.669131  -2.77883
 0.743145 -0.669131  -2.77883
-0.809017 -0.587785  -2.77883
 0.809017 -0.587785  -2.77883
-0.866025      -0.5  -2.77883
0.866025     -0.5 -2.77883
-0.913545 -0.406737  -2.77883
 0.913545 -0.406737  -2.77883
-0.951057 -0.309017  -2.77883
 0.951057 -0.309017  -2.77883
-0.978148 -0.207912  -2.77883
 0.978148 -0.207912  -2.77883
-0.994522 -0.104528  -2.77883
 0.994522 -0.104528  -2.77883
          -1 -1.22465e-16     -2.77883
          1 5.55112e-17    -2.77883
-0.994522  0.104528  -2.77883
0.994522 0.104528 -2.77883
-0.978148  0.207912  -2.77883
0.978148 0.207912 -2.77883
-0.951057  0.309017  -2.77883
0.951057 0.309017 -2.77883
-0.913545  0.406737  -2.77883
0.913545 0.406737 -2.77883
-0.866025       0.5  -2.77883
0.866025      0.5 -2.77883
-0.809017  0.587785  -2.77883
0.809017 0.587785 -2.77883
-0.743145  0.669131  -2.77883
0.743145 0.669131 -2.77883
-0.669131  0.743145  -2.77883
0.669131 0.743145 -2.77883
-0.587785  0.809017  -2.77883
0.587785 0.809017 -2.77883
    -0.5 0.866025 -2.77883
     0.5 0.866025 -2.77883
-0.406737  0.913545  -2.77883
0.406737 0.913545 -2.77883
-0.309017  0.951057  -2.77883
0.309017 0.951057 -2.77883
-0.207912  0.978148  -2.77883
0.207912 0.978148 -2.77883
-0.104528  0.994522  -2.77883
0.104528 0.994522 -2.77883
-1.83697e-16            1     -2.77883
-0.052336  -0.99863  -2.68814
0.052336 -0.99863 -2.68814
-0.156434 -0.987688  -2.68814
 0.156434 -0.987688  -2.68814
-0.258819 -0.965926  -2.68814
 0.258819 -0.965926  -2.68814
-0.358368  -0.93358  -2.68814
0.358368 -0.93358 -2.68814
 -0.45399 -0.891007  -2.68814
  0.45399 -0.891007  -2.68814
-0.544639 -0.838671  -2.68814
 0.544639 -0.838671  -2.68814
 -0.62932 -0.777146  -2.68814
  0.62932 -0.777146  -2.68814
-0.707107 -0.707107  -2.68814
 0.707107 -0.707107  -2.68814
-0.777146  -0.62932  -2.68814
0.777146 -0.62932 -2.68814
-0.838671 -0.544639  -2.68814
 0.838671 -0.544639  -2.68814
-0.891007  -0.45399  -2.68814
0.891007 -0.45399 -2.68814
 -0.93358 -0.358368  -2.68814
  0.93358 -0.358368  -2.68814
-0.965926 -0.258819  -2.68814
 0.965926 -0.258819  -2.68814
-0.987688 -0.156434  -2.68814
 0.987688 -0.156434  -2.68814
 -0.99863 -0.052336  -2.68814
  0.99863 -0.052336  -2.68814
-0.99863 0.052336 -2.68814
 0.99863 0.052336 -2.68814
-0.987688  0.156434  -2.68814
0.987688 0.156434 -2.68814
-0.965926  0.258819  -2.68814
0.965926 0.258819 -2.68814
-0.93358 0.358368 -2.68814
 0.93358 0.358368 -2.68814
[...]
POINT_DATA 4260
SCALARS Field double
LOOKUP_TABLE default
0.682659
-1.07585
2.0794
-2.2864
2.39519
-2.31885
1.47057
-1.14825
-0.214288
0.62971
-1.78761
2.10175
-2.4369
2.50669
-1.828
1.62742
-0.275552
-0.0957742
1.41911
-1.78674
2.38172
-2.58091
2.11669
-2.06811
0.761288
-0.502525
-0.985142
1.32431
-2.22137
2.48555
-2.31004
2.39204
-1.20555
1.09131
0.522707
-0.756551
1.98291
-2.21425
2.42152
-2.5455
1.61185
-1.5887
-0.0294805
0.163274
-1.65605
1.81525
-2.42836
2.52816
-1.94751
1.94715
-0.460699
0.379375
1.26477
-1.36538
2.33663
-2.39164
2.19904
-2.17828
0.919684
-0.843209
-1.0483
0.705724
-2.26461
2.0894
-2.31044
2.38901
-1.15534
1.45205
0.610544
-0.236061
2.07755
-1.80265
2.48517
-2.43903
1.61432
-1.81764
-0.0978808
-0.259396
-1.77834
1.43159
-2.56485
2.38315
-2.04859
2.10537
-0.48418
0.742039
1.33703
-1.00334
2.48927
-2.23
2.38537
-2.3052
1.07539
-1.18981
-0.777902
0.54154
-2.23522
1.99576
-2.55991
2.42257
-1.59178
1.60128
0.173317
-0.0455547
1.8362
-1.66852
2.55414
-2.42969
1.97019
-1.9354
0.391748
-0.439248
-1.36838
1.28668
-2.40965
2.34934
-2.20566
2.19643
-0.8707
0.901647
-1.02123
-2.2467
0.730665
-2.30888
2.10202
-1.17045
2.38495
0.585052
1.43468
2.05137
-0.257419
2.46703
-1.81733
1.60885
-2.44038
-0.090915
-1.80606
-1.76291
-0.24188
-2.54629
1.4451
-2.03159
2.38485
-0.471989
2.09354
1.34252
0.721697
2.48721
-1.02299
2.37581
-2.24011
1.05968
-2.3017
-0.796616
-1.17523
-2.2522
0.559463
-2.56987
2.00781
-1.59056
2.42262
0.186797
1.58928
1.85897
-0.0636129
2.57965
-1.68338
1.9901
-2.43311
0.398808
-1.92416
-1.37751
-0.416725
-2.43286
1.3119
-2.23571
2.36697
-0.897525
2.19888
0.887156
-2.23136
-0.994812
-2.31224
0.755891
-1.19185
2.11491
0.554163
2.38082
2.02316
1.41731
2.45178
-0.278098
1.61085
-1.83038
-0.0745079
-2.43927
-1.73973
-1.79183
-2.52481
-0.22224
-2.01775
1.45986
-0.467785
2.387
1.33841
2.08164
2.4775
0.701154
2.36303
-1.0428
1.04582
-2.25043
-0.809708
-2.29855
-2.26208
-1.16124
-2.57344
0.576484
-1.58522
2.0187
0.201561
2.42115
1.88041
1.57517
2.60174
-0.084415
2.00526
-1.70136
0.400752
-2.43943
-1.39108
-1.91459
-2.45872
-0.393769
-2.26576
1.33993
-0.921603
2.38942
0.877487
2.20695
-2.21705
-2.31753
-0.969329
-1.21621
0.779569
0.520136
2.12579
1.99346
2.37502
2.43845
1.39952
1.61852
-0.297427
-0.0501716
-1.84064
-1.70937
-2.43496
-2.50017
-1.77494
-2.00662
-0.201019
-0.471487
1.47525
1.32407
2.38949
2.45918
2.07042
2.34657
0.681781
1.03432
-1.06119
-0.815659
-2.25962
-2.26288
-2.29498
-2.56927
-1.14749
-1.5758
0.592856
0.216076
2.02874
1.89792
2.41866
2.6178
1.55955
2.01413
-0.107601
0.397619
-1.72257
-1.40746
-2.44928
-2.48456
-1.90789
-2.29301
-0.371846
-0.940706
1.3695
0.873905
2.41587
2.22073
-2.32177
-2.20274
-1.23966
-0.945623
0.486323
0.799953
1.9638
2.13308
2.42617
2.36697
1.62925
1.38179
-0.0209178
-0.314611
-1.67399
-1.84783
-2.47296
-2.42813
-1.99729
-1.75701
-0.481586
-0.180002
1.3008
1.49017
2.43295
2.39231
2.3265
2.06085
1.02509
0.665026
-0.81426
-1.07701
-2.25422
-2.26711
-2.55714
-2.29085
-1.5626
-1.13391
0.229143
0.609143
1.90974
2.03923
2.62619
2.41689
2.01578
1.54417
0.389694
-0.131959
-1.42514
-1.74681
-2.50819
-2.46348
-2.31527
-1.90562
-0.95317
-0.352936
0.877042
1.39872
2.2398
2.44506
-2.3232
-1.25889
-2.18847
0.456354
-0.924971
1.93646
0.815756
2.41481
2.13646
1.64059
2.35736
0.0095011
1.3652
-1.63698
-0.329177
-2.4448
-1.85289
-1.98928
-2.42101
-0.495929
-1.74071
1.27137
-0.161366
2.40101
1.50373
2.30392
2.39588
1.01823
2.05397
-0.806159
0.651673
-2.23704
-1.09021
-2.53799
-2.27362
-1.54673
-2.28693
0.239606
-1.12055
1.91485
0.626395
2.62626
2.05228
2.01033
2.41846
0.377977
1.53126
-1.44257
-0.156179
-2.52796
-1.77387
-2.33123
-2.48291
-0.958553
-1.90934
0.886451
-0.338889
2.26302
1.42566
2.47528
-1.27224
-2.32185
0.432907
-2.17546
1.9138
-0.908579
2.40512
0.826736
1.65095
2.137
0.0376971
2.34797
-1.60203
1.35095
-2.41817
-0.341462
-1.98281
-1.85783
-0.512517
-2.41664
1.23894
-1.72881
2.36645
-0.146541
2.28086
1.51595
1.01421
2.40111
-0.792192
2.05049
-2.21288
0.641337
-2.51369
-1.10232
-1.5299
-2.28108
0.246207
-2.28467
1.91258
-1.10744
2.61817
0.646127
1.99888
2.07031
0.364219
2.42588
-1.45781
1.52271
-2.54236
-0.179384
-2.34048
-1.80372
-0.957653
-2.50802
0.900437
-1.91988
2.28822
-0.330859
2.50453
1.44879
-1.28026
0.41688
-2.31939
1.89754
-2.16548
2.39823
-0.897028
1.65984
0.834087
0.0615147
2.13706
-1.57222
2.34104
-2.39562
1.3399
-1.97865
-0.352637
-0.530073
-1.86524
1.20629
-2.4177
2.33239
-1.72288
2.25954
-0.135419
1.01375
1.52813
-0.773042
2.40914
-2.18346
2.05031
-2.4863
0.632306
-1.51393
-1.11619
0.24761
-2.29221
1.9024
-2.28545
2.60245
-1.09436
1.98295
0.669849
0.350704
2.09527
-1.46842
2.4406
-2.5498
1.51928
-2.34294
-0.201248
-0.952036
-1.83607
0.916171
-2.53823
2.31234
-1.93657
2.5305
-0.328793
1.46701
0.407205
-1.28536
1.88795
-2.31843
2.39504
-2.15991
1.66777
-0.889706
0.0802193
0.840247
-1.54928
2.13968
-2.37891
2.3386
-1.97765
1.33209
-0.547916
-0.364386
1.17542
-1.87744
2.30115
-2.42554
2.24165
-1.72244
1.01734
-0.126043
-0.749505
1.54248
-2.15033
2.42098
-2.45745
2.05234
-1.50023
0.621766
0.242918
-1.13507
1.8841
-2.30945
2.57963
-2.29012
1.96395
-1.08074
0.33965
0.698526
-1.47202
2.12764
-2.54851
2.46237
-2.33833
1.52034
-0.943403
-0.221788
0.930398
-1.86966
2.33175
-2.57129
2.5505
-1.95704
1.47956
-0.331406
0.401251
1.88392
-1.29073
2.39589
-2.32139
1.67556
-2.15911
0.0943113
-0.884681
-1.53338
0.848374
-2.36867
2.14768
-1.98013
2.3418
-0.565494
1.32668
1.14758
-0.378535
2.2741
-1.89559
2.22794
-2.43957
1.02461
-1.72496
-0.722877
-0.11508
-2.11501
1.56137
-2.42835
2.43689
-1.48931
2.05468
0.232264
0.606683
1.85808
-1.16158
2.55027
-2.33392
1.94277
-2.29849
0.332364
-1.066
-1.46688
0.731983
-2.53687
2.16589
-2.32603
2.48896
-0.93286
1.52435
0.940363
-0.240704
2.34288
-1.90193
2.56169
-2.60315
1.48578
-1.97753
-0.336816
1.88345
0.395872
2.40037
-1.29933
1.68407
-2.32958
0.105055
-2.16219
-1.52364
-0.879285
-2.36445
0.861482
-1.98566
2.16277
-0.582114
2.35039
1.12375
1.32211
2.25205
-0.396537
2.21827
-1.91947
1.03422
-2.45731
-0.695217
-1.72663
-2.07951
-0.0990247
-2.40001
1.58649
-1.48078
2.45615
0.216998
2.05514
1.82586
0.584949
2.51539
-1.19652
1.91969
-2.36491
0.32884
-2.30931
-1.4527
-1.05
-2.51417
0.768352
-2.3054
2.20653
-0.920534
2.5167
0.944494
1.52945
2.34302
-0.256787
2.56151
-1.92894
1.4847
-2.6287
-0.343303
-1.99384
1.88444
2.40778
0.388463
1.69406
-1.31302
0.113907
-2.34302
-1.51864
-2.16727
-2.3652
-0.870924
-1.99348
0.881409
-0.596906
2.18501
1.105
2.36271
2.23569
1.31633
2.2123
-0.419143
1.04447
-1.94763
-0.669329
-2.47541
-2.04654
-1.72363
-2.37371
-0.075406
-1.47389
1.61808
0.199538
2.47732
1.79037
2.05199
2.47692
0.556249
1.89491
-1.23822
0.327903
-2.39979
-1.43108
-2.32079
-2.48138
-1.0334
-2.27632
0.80411
-0.905881
2.24454
0.942849
2.54141
2.33125
1.53426
2.54828
-0.267929
1.47522
-1.94608
-0.349982
-2.64302
-2.00263
2.41769
1.88534
1.70632
0.377403
0.122382
-1.33232
-1.51688
-2.36076
-2.37
-2.17238
-2.00309
-0.857849
-0.609258
0.90832
1.09223
2.2127
2.22594
2.37613
2.21022
1.30724
1.05401
-0.446466
-0.64801
-1.97796
-2.01926
-2.49071
-2.3515
-1.71348
-1.46832
-0.0436438
0.182707
1.6548
1.75553
2.49855
2.43801
2.04482
1.86932
0.522556
0.327771
-1.28278
-1.40531
-2.43459
-2.44139
-2.33126
-2.24004
-1.01797
-0.888287
0.834643
0.937015
2.27448
2.30864
2.5594
2.52193
1.53835
1.45656
-0.271545
-0.357152
-1.94937
-2.00249
-2.64274
2.43003
1.72187
1.8854
0.132192
0.362047
-1.51699
-1.35691
-2.37839
-2.38141
-2.01479
-2.17603
-0.619611
-0.839674
1.08565
0.940828
2.22382
2.24295
2.21303
2.38759
1.06275
1.29324
-0.632983
-0.478078
-2.00066
-2.00852
-2.33605
-2.50128
-1.46469
-1.69585
0.16863
-0.00540413
1.72551
1.69408
2.40286
2.51826
1.84486
2.03473
0.327079
0.487909
-1.37936
-1.32485
-2.39887
-2.46509
-2.19959
-2.33964
-0.86782
-1.00632
0.929315
0.855116
2.27828
2.29177
2.48452
2.56825
1.42886
1.54215
-0.365883
-0.265424
-1.99416
-1.93673
-2.6272
1.74204
2.445
0.145274
1.8842
-1.5174
0.342296
-2.39009
-1.38613
-2.02983
-2.40378
-0.629838
-2.17747
1.08412
-0.817131
2.22964
0.976552
2.22224
2.2726
1.07224
2.39451
-0.624132
1.27343
-1.99245
-0.513134
-2.32999
-2.03801
-1.46481
-2.50693
0.157925
-1.67255
1.70362
0.0358797
2.3759
1.73271
1.82468
2.53559
0.325783
2.02414
-1.35684
0.457364
-2.35927
-1.35888
-2.15947
-2.48782
-0.845938
-2.34581
0.921908
-1.0012
2.24454
0.861699
2.44008
2.29363
1.39389
2.56732
-0.377118
1.54646
-1.98021
-0.248803
-2.59866
-1.90879
1.76789
0.163694
2.46254
-1.51609
1.88116
-2.40458
0.318022
-2.04979
-1.41926
-0.642951
-2.42694
1.0847
-2.17648
2.2422
-0.791368
2.23906
1.01309
1.0851
2.29911
-0.619191
2.39549
-1.99421
1.24795
-2.33501
-0.550567
-1.47113
-2.06586
0.14941
-2.50902
1.69114
-1.64705
2.36058
0.0759326
1.8125
1.76758
0.325373
2.55034
-1.3398
2.01611
-2.32741
0.435743
-2.12497
-1.38048
-0.825509
-2.50059
0.915961
-2.3503
2.21193
-1.00465
2.39408
0.852659
1.35526
2.27969
-0.390866
2.55741
-1.96388
1.55187
-2.56157
-0.222938
-1.86902
0.18917
1.79956
-1.51072
2.48163
-2.42047
1.87523
-2.07552
0.289027
-0.662228
-1.45549
1.08315
-2.44982
2.25855
-2.1728
2.26329
-0.763341
1.10396
1.04883
-0.614277
2.32124
-2.00316
2.39056
-2.3509
1.21809
-1.48574
-0.58901
0.140387
-2.09205
1.68693
-2.50971
2.35834
-1.62337
1.81145
0.110492
0.32851
1.79614
-1.32806
2.56265
-2.30632
2.01316
-2.10082
0.426457
-0.810217
-1.38723
0.911096
-2.50278
2.18395
-2.35369
2.35226
-1.01716
1.31786
0.828804
-0.405623
2.25203
-1.94775
2.54034
-2.52132
1.55818
-1.82293
-0.191028
0.222191
-1.49911
1.83576
-2.43531
2.50016
-2.10634
1.86504
-0.689795
0.25548
1.07521
-1.49352
2.27428
-2.47096
2.29284
-2.16579
1.13027
-0.733427
-0.605255
1.08316
-2.01479
2.33918
-2.37519
2.38113
-1.50943
1.18607
0.127697
-0.626663
1.68776
-2.11656
2.36794
-2.51112
1.82291
-1.60503
0.338075
0.136081
-1.31961
1.8164
-2.29649
2.57254
-2.08994
2.01651
-0.803648
0.430664
0.905614
-1.37884
2.16238
-2.49485
2.31928
-2.35602
1.2869
-1.03714
-0.418469
0.793418
-1.93306
2.21441
-2.48277
2.51831
-1.77662
1.56419
-0.157658
-1.48012
0.261446
-2.44634
1.87362
-2.13979
2.51554
-0.725452
1.84961
1.05808
0.218373
2.28488
-1.53124
2.32406
-2.48857
1.1634
-2.15466
-0.589159
-0.7016
-2.02405
1.1162
-2.40362
2.35412
-1.54102
2.36965
0.109027
1.15476
1.68931
-0.661363
2.38568
-2.13884
1.84591
-2.5146
0.355849
-1.59442
-1.31146
0.150425
-2.29594
1.82688
-2.09275
2.57934
-0.808119
2.02563
0.897279
0.447228
2.14701
-1.3569
2.29773
-2.47779
1.26666
-2.35646
-0.426015
-1.06127
-1.91943
0.751529
-2.44911
2.17141
-1.73547
2.49325
-0.127655
1.5681
-1.45448
-2.45148
0.303876
-2.17226
1.90954
-0.766524
2.52564
1.03163
1.82925
2.28738
0.179797
2.3528
-1.56622
1.20072
-2.50111
-0.565218
-2.13917
-2.02705
-0.668117
-2.43129
1.14832
-1.5774
2.36763
0.0837898
2.35885
1.68766
1.12729
2.40664
-0.690673
1.87708
-2.15776
0.381701
-2.52023
-1.3009
-1.59248
-2.30117
0.152389
-2.10714
1.82651
-0.823836
2.58159
0.884221
2.0383
2.1362
0.47329
2.28782
-1.32414
1.25925
-2.45271
-0.425526
-2.35334
-1.90548
-1.08526
-2.42166
0.708625
-1.70307
2.12747
-0.10491
2.46654
1.56796
-2.45042
-1.42499
-2.20053
0.345426
-0.808681
1.94056
0.998768
2.53
2.28147
1.80585
2.37596
0.142495
1.23856
-1.59662
-0.535171
-2.50839
-2.02222
-2.12024
-2.45413
-0.633988
-1.61451
1.1795
0.0534659
2.38108
1.68072
2.35106
2.42608
1.10635
1.91173
-0.712133
0.413491
-2.17154
-1.28663
-2.52697
-2.30849
-1.59868
-2.12923
0.141908
-0.848866
1.81447
0.865866
2.57741
2.12791
2.05137
2.28769
0.505017
1.26431
-1.2837
-0.415894
-2.42071
-1.88992
-2.34489
-2.40027
-1.10494
-1.68085
0.669488
-0.0916859
2.08604
1.56238
2.43917
-2.44527
-2.22322
-1.39563
-0.84763
0.382622
0.964279
1.96573
2.26985
2.53043
2.39289
1.78236
1.27366
0.108573
-0.50247
-1.62239
-2.01076
-2.51222
-2.4703
-2.1003
-1.64873
-0.600894
0.0210857
1.20926
1.66866
2.39509
2.44104
2.34765
1.94535
1.0937
0.44767
-0.723737
-1.26925
-2.17807
-2.31523
-2.53288
-2.15477
-1.61148
-0.879694
0.119884
0.84336
1.79046
2.12066
2.56498
2.29451
2.06162
1.27941
0.538528
-0.398172
-1.23877
-1.87245
-2.38302
-2.38416
-2.33002
-1.66854
-1.11747
-0.0883218
0.637391
1.55115
2.04941
2.41193
-2.24171
-2.43991
-0.881124
-1.37015
0.932989
0.414275
2.25729
1.98694
2.40568
2.53044
1.30454
1.76153
-0.470785
0.0781358
-1.9961
-1.646
-2.48081
-2.51618
-1.67812
-2.0824
-0.0101184
-0.57061
1.65375
1.23685
2.45119
2.40927
1.97506
2.34853
0.480622
1.08985
-1.25076
-0.724178
-2.32059
-2.17531
-2.18051
-2.53553
-0.912338
-1.6286
0.819152
0.0879619
2.1142
1.75501
2.30574
2.54327
1.30104
2.06658
-0.375158
0.570593
-1.85416
-1.19239
-2.37292
-2.34149
-1.66492
-2.30898
-0.0935025
-1.12194
1.53533
0.613739
2.38586
2.01891
-2.2599
-0.910151
-2.43848
0.907694
-1.35019
2.24874
0.442421
2.41854
2.0086
1.3324
2.53386
-0.442515
1.74415
-1.98249
0.0485352
-2.48907
-1.67198
-1.70345
-2.52425
-0.0381046
-2.06867
1.63919
-0.544015
2.45861
1.26138
2.00058
2.42214
0.510116
2.35206
-1.23375
1.09404
-2.32558
-0.712866
-2.20499
-2.16162
-0.943771
-2.53263
0.796153
-1.64748
2.10969
0.0484616
2.31996
1.70973
1.32595
2.51267
-0.350329
2.0651
-1.83741
0.598848
-2.367
-1.14743
-1.66869
-2.29881
-0.105081
-2.28373
1.51708
-1.1193
2.36262
0.598469
1.99536
-0.938844
-2.28277
0.887633
-2.44346
2.24721
-1.33392
2.43629
0.472203
1.3607
2.03605
-0.417614
2.54297
-1.97321
1.72802
-2.4997
0.0146946
-1.72795
-1.70507
-0.0630355
-2.53857
1.62757
-2.05883
2.46682
-0.520497
2.02426
1.28183
0.53615
2.43109
-1.22003
2.35556
-2.33219
1.10474
-2.22896
-0.689882
-0.972872
-2.13599
0.776623
-2.52251
2.10891
-1.6658
2.3373
0.00425571
1.35237
1.65741
-0.326679
2.47514
-1.82494
2.05765
-2.3676
0.621888
-1.67918
-1.10676
-0.120874
-2.25852
1.4992
-2.25761
2.34443
-1.11187
1.97964
0.590851
-0.973212
0.868394
-2.3142
2.25234
-2.45407
2.46232
-1.31599
1.39409
0.510446
-0.39329
2.07344
-1.96918
2.55679
-2.51674
1.70804
-1.75631
-0.0290707
-0.0876217
-1.74778
1.6195
-2.55755
2.47918
-2.04965
2.05004
-0.498491
0.561145
1.29666
-1.20962
2.43273
-2.34239
2.35607
-2.25471
1.12047
-1.00073
-0.655765
0.761074
-2.09855
2.11339
-2.50465
2.35906
-1.68188
1.38029
-0.0415593
-0.305616
1.602
-1.81878
2.43415
-2.37634
2.04598
-1.69658
0.639156
-0.139343
-1.07319
1.48424
-2.22469
2.33381
-2.23459
1.97311
-1.10236
0.590203
0.843216
-1.01887
2.26003
-2.35512
2.49714
-2.46566
1.43674
-1.28886
-0.364845
0.563186
-1.9683
2.12166
-2.54192
2.57074
-1.79303
1.67762
-0.116351
-0.0864614
1.61317
-1.79841
2.49737
-2.57562
2.08199
-2.03598
0.589269
-0.476829
-1.20048
1.30333
-2.35697
2.42369
-2.28494
2.35158
-1.03032
1.14037
0.747878
-0.611532
2.12343
-2.05091
2.38682
-2.48015
1.41135
-1.69489
-0.286437
-0.085846
-1.81951
1.54822
-2.39441
2.39435
-1.72165
2.03286
-0.160131
0.650593
1.47384
-1.04933
2.33304
-2.20133
1.97744
-2.2184
0.596526
-1.09283
0.805079
2.26341
-1.0788
2.53782
-2.40256
1.49072
-2.47085
-0.327077
-1.24506
-1.96571
0.633275
-2.57379
2.17731
-1.84069
2.57775
-0.153999
1.63124
1.60455
-0.157122
2.52047
-1.85068
2.12278
-2.58492
0.625016
-2.01342
-1.18885
-0.456255
-2.37484
1.29847
-2.3217
2.40177
-1.06545
2.34192
0.733583
1.16423
2.1375
-0.559227
2.42142
-1.99649
1.448
-2.45185
-0.26664
-1.70509
-1.82577
-0.125549
-2.42191
1.50125
-1.75543
2.36095
-0.184083
2.0215
1.46827
0.65636
2.34346
-1.03754
1.99431
-2.19177
0.610725
-2.2117
-1.08419
2.2549
0.749063
2.5785
-1.1521
1.55507
-2.4501
-0.275908
-2.46161
-1.95521
-1.17995
-2.60778
0.71891
-1.89879
2.23326
-0.204092
2.57048
1.58857
1.56692
2.54513
-0.23594
2.17257
-1.89565
0.671809
-2.57856
-1.17016
-1.98094
-2.39308
-0.440171
-2.36531
1.27902
-1.10943
2.36709
0.713684
2.32886
2.15229
1.19189
2.46233
-0.50247
1.49244
-1.94077
-0.242629
-2.42411
-1.83437
-1.71348
-2.45753
-0.157836
-1.79864
1.46634
-0.212947
2.339
1.46603
2.01475
2.3649
0.6565
2.0249
-1.0398
0.634269
-2.19825
-1.07588
-2.21551
2.2283
2.6119
0.674041
1.62586
-1.23396
-0.209841
-2.48978
-1.93094
-2.43185
-2.63719
-1.09364
-1.96364
0.81354
-0.267615
2.28079
1.56072
2.5442
2.56622
1.48754
2.22875
-0.314304
0.730947
-1.92514
-1.14038
-2.55409
-2.40753
-1.94224
-2.414
-0.433624
-1.16402
1.24399
0.683878
2.32299
2.16339
2.31548
2.50733
1.22229
1.54574
-0.446648
-0.210665
-1.89079
-1.84103
-2.40221
-2.49853
-1.72131
-1.85116
-0.179951
-0.248994
1.44827
1.46412
2.33274
2.39541
2.01443
2.06921
0.650448
0.668759
-1.05763
-1.066
-2.22166
-2.22911
2.63133
2.18064
1.69699
0.583033
-0.130518
-1.3169
-1.8891
-2.51446
-2.65511
-2.37971
-2.02916
-0.991417
-0.342524
0.907557
1.51822
2.31242
2.57829
2.49892
2.28663
1.40057
0.801053
-0.38287
-1.09704
-1.9348
-2.41364
-2.51512
-2.4642
-1.90499
-1.22879
-0.440921
0.641255
1.19608
2.16617
2.27579
2.55281
2.30541
1.60742
1.25313
-0.167917
-0.398536
-1.84113
-1.8542
-2.54096
-2.39131
-1.9119
-1.72939
-0.294342
-0.189038
1.45852
1.45097
2.43127
2.34465
2.1257
2.0207
0.715409
0.636808
-1.0518
-1.0921
-2.2501
-2.26125
2.63233
1.76173
2.11304
-0.042377
0.482469
-1.82904
-1.39299
-2.65621
-2.52001
-2.08842
-2.30844
-0.424331
-0.882728
1.46083
0.99105
2.57689
2.32448
2.34038
2.43996
0.878394
1.31634
-1.03979
-0.434176
-2.40767
-1.92572
-2.51122
-2.4703
-1.30098
-1.87798
0.584954
-0.463186
2.15685
1.14233
2.59448
2.2339
1.67526
2.30202
-0.113079
1.28134
-1.83051
-0.36515
-2.58029
-1.83803
-1.97854
-2.39512
-0.350282
-1.7373
1.44489
-0.182224
2.4674
1.47692
2.19129
2.37486
0.774465
2.03156
-1.03018
0.613411
-2.27453
-1.14356
-2.31472
1.81443
2.61378
0.0483026
2.03034
-1.75353
0.380624
-2.63799
-1.45582
-2.13542
-2.5066
-0.507216
-2.22574
1.3908
-0.778841
2.55951
1.05642
2.38443
2.3184
0.957748
2.37679
-0.97061
1.24557
-2.38737
-0.463979
-2.55017
-1.90329
-1.37616
-2.43012
0.51642
-1.86757
2.1333
-0.497026
2.6281
1.0928
1.74574
2.20628
-0.0466373
2.30796
-1.80629
1.30356
-2.61198
-0.352581
-2.04763
-1.8472
-0.416846
-2.4148
1.41943
-1.74281
2.49819
-0.156815
2.26145
1.52649
0.844929
2.42074
-0.998159
2.04297
-2.29745
0.577643
-2.37805
-1.21115
1.85163
0.134896
2.5782
-1.66795
1.94002
-2.60145
0.285666
-2.16647
-1.50191
-0.58537
-2.47857
1.31218
-2.14202
2.52595
-0.690139
2.41455
1.10003
1.03339
2.29991
-0.893276
2.32054
-2.35242
1.19723
-2.57704
-0.471279
-1.44906
-1.8745
0.439149
-2.40314
2.09527
-1.87561
2.65018
-0.535269
1.81457
1.05818
0.0290407
2.20018
-1.76734
2.32442
-2.63201
1.31626
-2.11497
-0.365303
-0.492419
-1.8834
1.37982
-2.44816
2.51828
-1.74203
2.33071
-0.110878
0.924449
1.59744
-0.953641
2.47682
-2.31341
2.04952
-2.44558
0.527329
-1.29244
0.211886
1.87283
-1.57914
2.53104
-2.55062
1.85072
-2.18072
0.204173
-0.654273
-1.53114
1.22991
-2.44305
2.47828
-2.06793
2.42852
-0.624184
1.10023
1.12232
-0.81258
2.27678
-2.30448
2.28101
-2.58933
1.17696
-1.5145
-0.457655
0.35789
-1.84578
2.04443
-2.39398
2.65858
-1.89959
1.87723
-0.569445
0.11005
1.04684
-1.71442
2.2191
-2.63763
2.34971
-2.176
1.31552
-0.573661
-0.405534
1.32571
-1.94439
2.52351
-2.48952
2.39346
-1.73011
1.00926
-0.0442202
-0.895922
1.6847
-2.31723
2.53553
-2.51053
2.04546
-1.38298
0.461809
0.275719
-1.49396
1.8803
-2.49146
2.47947
-2.1801
1.77057
-0.711304
0.140375
1.14895
-1.54612
2.42023
-2.40816
2.42643
-2.01216
1.15469
-0.584817
-0.73353
1.12638
-2.24679
2.25619
-2.58642
2.26418
-1.56838
1.18589
0.277826
-0.427004
1.98403
-1.82235
2.65265
-2.4036
1.9297
-1.93418
0.191525
-0.592097
-1.65031
1.06262
-2.62776
2.26123
-2.22649
2.3785
-0.655952
1.297
1.25908
-0.472524
2.51176
-2.02384
2.44454
-2.53076
1.09448
-1.70261
-0.826159
0.0408488
-2.30511
1.78062
-2.56583
2.58845
-1.4764
2.0263
0.382697
-1.41808
0.325148
-2.43067
1.8783
-2.16859
2.43106
-0.755775
1.70608
1.07354
0.0959834
2.35662
-1.55082
2.41057
-2.38097
1.19515
-1.98006
-0.660478
-0.572313
-2.18351
1.11623
-2.56968
2.24256
-1.60829
2.27104
0.203774
1.22022
1.91827
-0.385798
2.63338
-1.80846
1.96909
-2.42994
0.268257
-1.97251
-1.5794
-0.597915
-2.60331
1.10421
-2.26333
2.31932
-0.734046
2.40268
1.18407
1.25733
2.48337
-0.561929
2.48024
-2.112
1.1748
-2.56309
-0.747677
-1.65717
-2.27561
0.139175
-2.60539
1.87598
-1.56529
2.62791
0.294224
1.99008
-1.35545
-2.37453
0.360957
-2.15111
1.87191
-0.788706
2.39234
1.00688
1.66156
2.2927
0.070709
2.38496
-1.54936
1.2221
-2.36605
-0.596429
-1.97322
-2.11914
-0.584261
-2.54213
1.0957