# vtk DataFile Version 3.1
vtk output
ASCII
DATASET POLYDATA
POINTS 32 float
0.000000 0.033333 0.133333 
0.000000 0.016667 0.116667 
0.000000 0.083333 0.133333 
0.000000 0.066667 0.116667 
0.000000 0.133333 0.133333 
0.000000 0.116667 0.116667 
0.000000 0.183333 0.133333 
0.000000 0.166667 0.116667 
0.000000 0.033333 0.033333 
0.000000 0.016667 0.016667 
0.000000 0.083333 0.033333 
0.000000 0.066667 0.016667 
0.000000 0.133333 0.033333 
0.000000 0.116667 0.016667 
0.000000 0.183333 0.033333 
0.000000 0.166667 0.016667 
0.000000 0.033333 0.083333 
0.000000 0.016667 0.066667 
0.000000 0.083333 0.083333 
0.000000 0.066667 0.066667 
0.000000 0.133333 0.083333 
0.000000 0.116667 0.066667 
0.000000 0.183333 0.083333 
0.000000 0.166667 0.066667 
0.000000 0.033333 0.183333 
0.000000 0.016667 0.166667 
0.000000 0.083333 0.183333 
0.000000 0.066667 0.166667 
0.000000 0.133333 0.183333 
0.000000 0.116667 0.166667 
0.000000 0.183333 0.183333 
0.000000 0.166667 0.166667 

POINT_DATA 32 
VECTORS    Normal    double 
-0.002500 0.000000 0.000000 
-0.002500 -0.000000 -0.000000 
-0.002500 -0.000000 0.000000 
-0.002500 -0.000000 -0.000000 
-0.002500 -0.000000 -0.000000 
-0.002500 0.000000 0.000000 
-0.002500 0.000000 0.000000 
-0.002500 0.000000 0.000000 
-0.002500 0.000000 -0.000000 
-0.002500 -0.000000 -0.000000 
-0.002500 -0.000000 0.000000 
-0.002500 0.000000 0.000000 
-0.002500 -0.000000 -0.000000 
-0.002500 0.000000 0.000000 
-0.002500 -0.000000 -0.000000 
-0.002500 0.000000 0.000000 
-0.002500 0.000000 0.000000 
-0.002500 0.000000 0.000000 
-0.002500 0.000000 0.000000 
-0.002500 0.000000 0.000000 
-0.002500 -0.000000 0.000000 
-0.002500 -0.000000 -0.000000 
-0.002500 -0.000000 0.000000 
-0.002500 0.000000 0.000000 
-0.002500 -0.000000 -0.000000 
-0.002500 -0.000000 -0.000000 
-0.002500 0.000000 -0.000000 
-0.002500 0.000000 0.000000 
-0.002500 -0.000000 0.000000 
-0.002500 0.000000 0.000000 
-0.002500 0.000000 0.000000 
-0.002500 -0.000000 -0.000000 
