# vtk DataFile Version 3.1
vtk output
ASCII
DATASET POLYDATA
POINTS 4260 FLOAT
2.83277e-16          -1    -3.14159
-0.104528 -0.994522  -3.14159
 0.104528 -0.994522  -3.14159
-0.207912 -0.978148  -3.14159
 0.207912 -0.978148  -3.14159
-0.309017 -0.951057  -3.14159
 0.309017 -0.951057  -3.14159
-0.406737 -0.913545  -3.14159
 0.406737 -0.913545  -3.14159
     -0.5 -0.866025  -3.14159
      0.5 -0.866025  -3.14159
-0.587785 -0.809017  -3.14159
 0.587785 -0.809017  -3.14159
-0.669131 -0.743145  -3.14159
 0.669131 -0.743145  -3.14159
-0.743145 -0.669131  -3.14159
 0.743145 -0.669131  -3.14159
-0.809017 -0.587785  -3.14159
 0.809017 -0.587785  -3.14159
-0.866025      -0.5  -3.14159
0.866025     -0.5 -3.14159
-0.913545 -0.406737  -3.14159
 0.913545 -0.406737  -3.14159
-0.951057 -0.309017  -3.14159
 0.951057 -0.309017  -3.14159
-0.978148 -0.207912  -3.14159
 0.978148 -0.207912  -3.14159
-0.994522 -0.104528  -3.14159
 0.994522 -0.104528  -3.14159
          -1 -5.66554e-16     -3.14159
       1        0 -3.14159
-0.994522  0.104528  -3.14159
0.994522 0.104528 -3.14159
-0.978148  0.207912  -3.14159
0.978148 0.207912 -3.14159
-0.951057  0.309017  -3.14159
0.951057 0.309017 -3.14159
-0.913545  0.406737  -3.14159
0.913545 0.406737 -3.14159
-0.866025       0.5  -3.14159
0.866025      0.5 -3.14159
-0.809017  0.587785  -3.14159
0.809017 0.587785 -3.14159
-0.743145  0.669131  -3.14159
0.743145 0.669131 -3.14159
-0.669131  0.743145  -3.14159
0.669131 0.743145 -3.14159
-0.587785  0.809017  -3.14159
0.587785 0.809017 -3.14159
    -0.5 0.866025 -3.14159
     0.5 0.866025 -3.14159
-0.406737  0.913545  -3.14159
0.406737 0.913545 -3.14159
-0.309017  0.951057  -3.14159
0.309017 0.951057 -3.14159
-0.207912  0.978148  -3.14159
0.207912 0.978148 -3.14159
-0.104528  0.994522  -3.14159
0.104528 0.994522 -3.14159
-1.83697e-16            1     -3.14159
-0.052336  -0.99863   -3.0509
0.052336 -0.99863  -3.0509
-0.156434 -0.987688   -3.0509
 0.156434 -0.987688   -3.0509
-0.258819 -0.965926   -3.0509
 0.258819 -0.965926   -3.0509
-0.358368  -0.93358   -3.0509
0.358368 -0.93358  -3.0509
 -0.45399 -0.891007   -3.0509
  0.45399 -0.891007   -3.0509
-0.544639 -0.838671   -3.0509
 0.544639 -0.838671   -3.0509
 -0.62932 -0.777146   -3.0509
  0.62932 -0.777146   -3.0509
-0.707107 -0.707107   -3.0509
 0.707107 -0.707107   -3.0509
-0.777146  -0.62932   -3.0509
0.777146 -0.62932  -3.0509
-0.838671 -0.544639   -3.0509
 0.838671 -0.544639   -3.0509
-0.891007  -0.45399   -3.0509
0.891007 -0.45399  -3.0509
 -0.93358 -0.358368   -3.0509
  0.93358 -0.358368   -3.0509
-0.965926 -0.258819   -3.0509
 0.965926 -0.258819   -3.0509
-0.987688 -0.156434   -3.0509
 0.987688 -0.156434   -3.0509
 -0.99863 -0.052336   -3.0509
  0.99863 -0.052336   -3.0509
-0.99863 0.052336  -3.0509
 0.99863 0.052336  -3.0509
-0.987688  0.156434   -3.0509
0.987688 0.156434  -3.0509
-0.965926  0.258819   -3.0509
0.965926 0.258819  -3.0509
-0.93358 0.358368  -3.0509
 0.93358 0.358368  -3.0509
-0.891007   0.45399   -3.0509
0.891007  0.45399  -3.0509
-0.838671  0.544639   -3.0509
0.838671 0.544639  -3.0509
-0.777146   0.62932   -3.0509
0.777146  0.62932  -3.0509
-0.707107  0.707107   -3.0509
0.707107 0.707107  -3.0509
-0.62932 0.777146  -3.0509
 0.62932 0.777146  -3.0509
-0.544639  0.838671   -3.0509
0.544639 0.838671  -3.0509
-0.45399 0.891007  -3.0509
 0.45399 0.891007  -3.0509
-0.358368   0.93358   -3.0509
0.358368  0.93358  -3.0509
-0.258819  0.965926   -3.0509
0.258819 0.965926  -3.0509
-0.156434  0.987688   -3.0509
0.156434 0.987688  -3.0509
-0.052336   0.99863   -3.0509
0.052336  0.99863  -3.0509
6.12323e-17          -1    -2.96021
-0.104528 -0.994522  -2.96021
 0.104528 -0.994522  -2.96021
-0.207912 -0.978148  -2.96021
 0.207912 -0.978148  -2.96021
-0.309017 -0.951057  -2.96021
 0.309017 -0.951057  -2.96021
-0.406737 -0.913545  -2.96021
 0.406737 -0.913545  -2.96021
     -0.5 -0.866025  -2.96021
      0.5 -0.866025  -2.96021
-0.587785 -0.809017  -2.96021
 0.587785 -0.809017  -2.96021
-0.669131 -0.743145  -2.96021
 0.669131 -0.743145  -2.96021
-0.743145 -0.669131  -2.96021
 0.743145 -0.669131  -2.96021
-0.809017 -0.587785  -2.96021
 0.809017 -0.587785  -2.96021
-0.866025      -0.5  -2.96021
0.866025     -0.5 -2.96021
-0.913545 -0.406737  -2.96021
 0.913545 -0.406737  -2.96021
-0.951057 -0.309017  -2.96021
 0.951057 -0.309017  -2.96021
-0.978148 -0.207912  -2.96021
 0.978148 -0.207912  -2.96021
-0.994522 -0.104528  -2.96021
 0.994522 -0.104528  -2.96021
          -1 -5.66554e-16     -2.96021
          1 2.77556e-17    -2.96021
-0.994522  0.104528  -2.96021
0.994522 0.104528 -2.96021
-0.978148  0.207912  -2.96021
0.978148 0.207912 -2.96021
-0.951057  0.309017  -2.96021
0.951057 0.309017 -2.96021
-0.913545  0.406737  -2.96021
0.913545 0.406737 -2.96021
-0.866025       0.5  -2.96021
0.866025      0.5 -2.96021
-0.809017  0.587785  -2.96021
0.809017 0.587785 -2.96021
-0.743145  0.669131  -2.96021
0.743145 0.669131 -2.96021
-0.669131  0.743145  -2.96021
0.669131 0.743145 -2.96021
-0.587785  0.809017  -2.96021
0.587785 0.809017 -2.96021
    -0.5 0.866025 -2.96021
     0.5 0.866025 -2.96021
-0.406737  0.913545  -2.96021
0.406737 0.913545 -2.96021
-0.309017  0.951057  -2.96021
0.309017 0.951057 -2.96021
-0.207912  0.978148  -2.96021
0.207912 0.978148 -2.96021
-0.104528  0.994522  -2.96021
0.104528 0.994522 -2.96021
-1.83697e-16            1     -2.96021
-0.052336  -0.99863  -2.86952
0.052336 -0.99863 -2.86952
-0.156434 -0.987688  -2.86952
 0.156434 -0.987688  -2.86952
-0.258819 -0.965926  -2.86952
 0.258819 -0.965926  -2.86952
-0.358368  -0.93358  -2.86952
0.358368 -0.93358 -2.86952
 -0.45399 -0.891007  -2.86952
  0.45399 -0.891007  -2.86952
-0.544639 -0.838671  -2.86952
 0.544639 -0.838671  -2.86952
 -0.62932 -0.777146  -2.86952
  0.62932 -0.777146  -2.86952
-0.707107 -0.707107  -2.86952
 0.707107 -0.707107  -2.86952
-0.777146  -0.62932  -2.86952
0.777146 -0.62932 -2.86952
-0.838671 -0.544639  -2.86952
 0.838671 -0.544639  -2.86952
-0.891007  -0.45399  -2.86952
0.891007 -0.45399 -2.86952
 -0.93358 -0.358368  -2.86952
  0.93358 -0.358368  -2.86952
-0.965926 -0.258819  -2.86952
 0.965926 -0.258819  -2.86952
-0.987688 -0.156434  -2.86952
 0.987688 -0.156434  -2.86952
 -0.99863 -0.052336  -2.86952
  0.99863 -0.052336  -2.86952
-0.99863 0.052336 -2.86952
 0.99863 0.052336 -2.86952
-0.987688  0.156434  -2.86952
0.987688 0.156434 -2.86952
-0.965926  0.258819  -2.86952
0.965926 0.258819 -2.86952
-0.93358 0.358368 -2.86952
 0.93358 0.358368 -2.86952
-0.891007   0.45399  -2.86952
0.891007  0.45399 -2.86952
-0.838671  0.544639  -2.86952
0.838671 0.544639 -2.86952
-0.777146   0.62932  -2.86952
0.777146  0.62932 -2.86952
-0.707107  0.707107  -2.86952
0.707107 0.707107 -2.86952
-0.62932 0.777146 -2.86952
 0.62932 0.777146 -2.86952
-0.544639  0.838671  -2.86952
0.544639 0.838671 -2.86952
-0.45399 0.891007 -2.86952
 0.45399 0.891007 -2.86952
-0.358368   0.93358  -2.86952
0.358368  0.93358 -2.86952
-0.258819  0.965926  -2.86952
0.258819 0.965926 -2.86952
-0.156434  0.987688  -2.86952
0.156434 0.987688 -2.86952
-0.052336   0.99863  -2.86952
0.052336  0.99863 -2.86952
6.12323e-17          -1    -2.77883
-0.104528 -0.994522  -2.77883
 0.104528 -0.994522  -2.77883
-0.207912 -0.978148  -2.77883
 0.207912 -0.978148  -2.77883
-0.309017 -0.951057  -2.77883
 0.309017 -0.951057  -2.77883
-0.406737 -0.913545  -2.77883
 0.406737 -0.913545  -2.77883
     -0.5 -0.866025  -2.77883
      0.5 -0.866025  -2.77883
-0.587785 -0.809017  -2.77883
 0.587785 -0.809017  -2.77883
-0.669131 -0.743145  -2.77883
 0.669131 -0.743145  -2.77883
-0.743145 -0.669131  -2.77883
 0.743145 -0.669131  -2.77883
-0.809017 -0.587785  -2.77883
 0.809017 -0.587785  -2.77883
-0.866025      -0.5  -2.77883
0.866025     -0.5 -2.77883
-0.913545 -0.406737  -2.77883
 0.913545 -0.406737  -2.77883
-0.951057 -0.309017  -2.77883
 0.951057 -0.309017  -2.77883
-0.978148 -0.207912  -2.77883
 0.978148 -0.207912  -2.77883
-0.994522 -0.104528  -2.77883
 0.994522 -0.104528  -2.77883
          -1 -1.22465e-16     -2.77883
          1 5.55112e-17    -2.77883
-0.994522  0.104528  -2.77883
0.994522 0.104528 -2.77883
-0.978148  0.207912  -2.77883
0.978148 0.207912 -2.77883
-0.951057  0.309017  -2.77883
0.951057 0.309017 -2.77883
-0.913545  0.406737  -2.77883
0.913545 0.406737 -2.77883
-0.866025       0.5  -2.77883
0.866025      0.5 -2.77883
-0.809017  0.587785  -2.77883
0.809017 0.587785 -2.77883
-0.743145  0.669131  -2.77883
0.743145 0.669131 -2.77883
-0.669131  0.743145  -2.77883
0.669131 0.743145 -2.77883
-0.587785  0.809017  -2.77883
0.587785 0.809017 -2.77883
    -0.5 0.866025 -2.77883
     0.5 0.866025 -2.77883
-0.406737  0.913545  -2.77883
0.406737 0.913545 -2.77883
-0.309017  0.951057  -2.77883
0.309017 0.951057 -2.77883
-0.207912  0.978148  -2.77883
0.207912 0.978148 -2.77883
-0.104528  0.994522  -2.77883
0.104528 0.994522 -2.77883
-1.83697e-16            1     -2.77883
-0.052336  -0.99863  -2.68814
0.052336 -0.99863 -2.68814
-0.156434 -0.987688  -2.68814
 0.156434 -0.987688  -2.68814
-0.258819 -0.965926  -2.68814
 0.258819 -0.965926  -2.68814
-0.358368  -0.93358  -2.68814
0.358368 -0.93358 -2.68814
 -0.45399 -0.891007  -2.68814
  0.45399 -0.891007  -2.68814
-0.544639 -0.838671  -2.68814
 0.544639 -0.838671  -2.68814
 -0.62932 -0.777146  -2.68814
  0.62932 -0.777146  -2.68814
-0.707107 -0.707107  -2.68814
 0.707107 -0.707107  -2.68814
-0.777146  -0.62932  -2.68814
0.777146 -0.62932 -2.68814
-0.838671 -0.544639  -2.68814
 0.838671 -0.544639  -2.68814
-0.891007  -0.45399  -2.68814
0.891007 -0.45399 -2.68814
 -0.93358 -0.358368  -2.68814
  0.93358 -0.358368  -2.68814
-0.965926 -0.258819  -2.68814
 0.965926 -0.258819  -2.68814
-0.987688 -0.156434  -2.68814
 0.987688 -0.156434  -2.68814
 -0.99863 -0.052336  -2.68814
  0.99863 -0.052336  -2.68814
-0.99863 0.052336 -2.68814
 0.99863 0.052336 -2.68814
-0.987688  0.156434  -2.68814
0.987688 0.156434 -2.68814
-0.965926  0.258819  -2.68814
0.965926 0.258819 -2.68814
-0.93358 0.358368 -2.68814
 0.93358 0.358368 -2.68814
[...]
POINT_DATA 4260
SCALARS Field double
LOOKUP_TABLE default
-1.33647
-1.65566
-0.916069
-1.95515
-0.412609
-2.17693
0.0642409
-2.33033
0.555361
-2.4779
1.03649
-2.50448
1.42417
-2.36194
1.79311
-2.10108
2.13206
-1.66327
2.33917
-1.10626
2.45477
-0.583449
2.44913
-0.0793864
2.24383
0.388274
1.94254
0.763678
1.58754
1.15866
1.14113
1.59472
0.69507
1.97784
0.241604
2.3317
-0.302885
2.59474
-0.850747
2.64301
-1.36618
2.54051
-1.87136
2.31601
-2.24403
1.94316
-2.46581
1.54975
-2.61566
1.17303
-2.62973
0.743971
-2.51642
0.323773
-2.34552
-0.104235
-2.0341
-0.621977
-1.59429
-1.13363
0.392735
0.92824
-0.0935708
1.40434
-0.521119
1.85196
-0.978283
2.23074
-1.40387
2.44485
-1.79313
2.57011
-2.19126
2.61378
-2.47282
2.50463
-2.59041
2.31474
-2.59978
2.03606
-2.43817
1.59642
-2.14131
1.09533
-1.82765
0.572109
-1.45056
-0.0036756
-1.01786
-0.522359
-0.601984
-0.972575
-0.122018
-1.43083
0.419138
-1.81983
0.923766
-2.1254
1.43111
-2.39072
1.89922
-2.50467
2.21056
-2.45162
2.41516
-2.3155
2.51296
-2.04838
2.44551
-1.68434
2.31526
-1.31776
2.14488
-0.876525
1.86112
-0.36531
1.53006
0.126406
1.147
0.644267
2.10724
1.8529
2.34002
1.5346
2.50467
1.23243
2.49176
0.922418
2.37015
0.493136
2.15497
0.00218528
1.79522
-0.531668
1.3862
-1.13148
0.936692
-1.65064
0.381011
-2.02543
-0.181456
-2.2999
-0.711247
-2.40334
-1.23475
-2.36823
-1.63573
-2.31497
-1.89988
-2.19962
-2.11144
-2.02427
-2.21261
-1.84081
-2.21422
-1.53568
-2.18047
-1.08113
-2.0097
-0.563469
-1.68497
0.0414113
-1.28835
0.659076
-0.780712
1.14196
-0.21934
1.52901
0.271283
1.82934
0.741623
1.99963
1.18577
2.14622
1.53261
2.27782
1.85344
2.2972
2.12558
2.25064
2.01797
1.8845
2.13573
1.62322
2.26208
1.28843
2.31035
0.887794
2.3118
0.380291
2.20972
-0.116699
1.88769
-0.576099
1.42332
-1.06335
0.867289
-1.49713
0.2244
-1.86088
-0.346715
-2.19309
-0.790877
-2.37231
-1.17801
-2.37016
-1.46898
-2.26606
-1.71561
-2.01954
-2.0288
-1.67895
-2.32063
-1.35057
-2.52787
-0.959014
-2.64453
-0.486624
-2.5349
0.00565416
-2.19415
0.579951
-1.759
1.18556
-1.24765
1.6818
-0.738541
2.0915
-0.340881
2.39013
0.0405063
2.51142
0.452698
2.55355
0.849106
2.52626
1.29632
2.34967
1.75336
2.09081
0.297508
0.738959
-0.143455
1.131
-0.596719
1.56321
-1.11871
2.01787
-1.58678
2.36656
-1.95096
2.61775
-2.25674
2.71798
-2.4272
2.57341
-2.47957
2.28859
-2.49924
1.9293
-2.39785
1.49187
-2.14944
1.10053
-1.81222
0.760061
-1.32533
0.355215
-0.741501
-0.0903009
-0.202151
-0.59933
0.320536
-1.21791
0.81299
-1.78822
1.21779
-2.20957
1.63215
-2.49129
2.04982
-2.55321
2.35776
-2.44652
2.57852
-2.32297
2.66902
-2.15859
2.548
-1.95309
2.32051
-1.7446
2.02619
-1.41248
1.62032
-0.937875
1.18731
-0.424668
0.719303
0.145689
-1.39855
-1.71392
-1.0325
-2.06372
-0.59113
-2.35226
-0.133878
-2.53547
0.407577
-2.64028
0.997248
-2.5641
1.50076
-2.31805
1.93294
-2.01657
2.25275
-1.6249
2.37603
-1.165
2.40558
-0.710103
2.38744
-0.177156
2.2793
0.418336
2.15779
0.954838
1.99101
1.44642
1.65764
1.84337
1.21144
2.05843
0.678792
2.19076
0.0495531
2.2711
-0.522416
2.23762
-0.98085
2.15104
-1.39195
1.97863
-1.70487
1.62745
-1.9479
1.18978
-2.20609
0.710676
-2.38084
0.171967
-2.429
-0.30909
-2.39581
-0.723879
-2.20417
-1.15827
-1.88092
-1.54618
-2.22857
-2.20656
-2.19474
-2.19335
-2.09392
-2.08435
-1.97084
-1.84534
-1.71466
-1.52974
-1.30946
-1.06422
-0.848048
-0.48297
-0.30213
0.0760729
0.269564
0.621407
0.74857
1.10791
1.19582
1.45017
1.61283
1.74664
1.92129
2.02885
2.17452
2.22984
2.33411
2.40225
2.29608
2.50395
2.13854
2.4197
1.89305
2.21379
1.5274
1.90927
1.14515
1.4696
0.745001
1.00971
0.238874
0.558167
-0.296427
0.051488
-0.831932
-0.426192
-1.38567
-0.859221
-1.82122
-1.30448
-2.10417
-1.6653
-2.30686
-1.92435
-2.37505
-2.15562
-2.33932
-2.29164
-1.35138
-0.96339
-1.7139
-0.618412
-2.04128
-0.225369
-2.37735
0.228495
-2.59238
0.668641
-2.62634
1.15189
-2.51825
1.63721
-2.20099
1.99896
-1.7309
2.27352
-1.26616
2.44487
-0.798486
2.44445
-0.349942
2.36235
0.0255828
2.20251
0.445803
1.8837
0.937932
1.48105
1.41143
1.01364
1.88969
0.449315
2.30653
-0.0871297
2.52927
-0.567534
2.60832
-1.06585
2.55582
-1.51822
2.33054
-1.92632
2.05143
-2.33523
1.75544
-2.61538
1.38134
-2.71962
1.00164
-2.70305
0.609008
-2.50477
0.123755
-2.16462
-0.367535
-1.79559
-0.840081
-1.34732
0.793819
0.383079
1.19508
-0.130894
1.59527
-0.679832
1.9128
-1.23829
2.20756
-1.81742
2.45757
-2.25563
2.56285
-2.48492
2.57655
-2.56822
2.48389
-2.47653
2.21134
-2.28649
1.85484
-2.13662
1.44201
-1.96376
0.921158
-1.72792
0.384105
-1.44578
-0.154038
-1.00189
-0.73958
-0.402811
-1.25156
0.216598
-1.64648
0.84538
-1.97763
1.40464
-2.17897
1.7717
-2.2808
2.02288
-2.37641
2.19828
-2.37648
2.26834
-2.24589
2.3337
-2.02767
2.38435
-1.6461
2.30269
-1.14173
2.12353
-0.643182
1.83798
-0.113404
1.39454
0.430971
0.912661
2.08125
2.24052
1.89564
2.31639
1.63971
2.37087
1.19901
2.3722
0.653166
2.21736
0.0621053
1.97221
-0.558139
1.64334
-1.0527
1.17353
-1.3934
0.66581
-1.68636
0.152959
-1.9127
-0.406576
-2.11088
-0.908981
-2.35044
-1.33746
-2.50441
-1.75509
-2.50389
-2.06658
-2.37838
-2.24252
-2.0507
-2.32782
-1.56535
-2.23626
-1.0738
-1.99274
-0.572298
-1.71955
-0.0975117
-1.38165
0.27983
-0.991512
0.671125
-0.605762
1.11086
-0.128855
1.5178
0.423757
1.91796
0.923767
2.24491
1.38136
2.3749
1.75434
2.38535
1.97467
2.32234
2.15599
1.84514
2.14072
1.58804
2.36059
1.35728
2.50508
1.03569
2.50332
0.663907
2.25549
0.236423
1.8762
-0.296859
1.44398
-0.81736
0.955493
-1.28133
0.519666
-1.7275
0.126467
-2.05195
-0.332051
-2.2386
-0.800405
-2.36025
-1.26561
-2.34761
-1.76078
-2.20777
-2.15224
-2.01374
-2.38821
-1.68081
-2.52206
-1.21162
-2.48973
-0.709202
-2.32675
-0.149001
-2.15108
0.414754
-1.908
0.880627
-1.58479
1.33247
-1.23098
1.78619
-0.759165
2.15916
-0.195
2.47902
0.320647
2.67484
0.797538
2.62946
1.21195
2.4379
1.51251
2.1684
1.82294
0.320268
-0.117048
0.870109
-0.526424
1.48259
-0.878515
1.98965
-1.21682
2.37705
-1.62569
2.59881
-1.99845
2.58996
-2.28516
2.4763
-2.51736
2.31341
-2.59284
2.05817
-2.50304
1.79015
-2.32841
1.49425
-2.00909
1.0738
-1.57211
0.594987
-1.12457
0.0717405
-0.615927
-0.534616
-0.060799
-1.09352
0.456129
-1.54975
0.991951
-1.94876
1.50908
-2.21453
1.88981
-2.36242
2.18583
-2.48073
2.40285
-2.48531
2.49306
-2.35303
2.54771
-2.15362
2.54143
-1.83705
2.34601
-1.44848
1.99592
-1.10132
1.50056
-0.716848
0.859738
-0.252471
0.251896
-1.82033
-1.43413
-2.04797
-0.949442
-2.16927
-0.329658
-2.30917
0.345057
-2.4042
0.913177
-2.42578
1.39323
-2.40437
1.77003
-2.23176
1.98603
-1.90392
2.15158
-1.51612
2.29889
-1.02072
2.36445
-0.447157
2.40873
0.0964439
2.3922
0.648686
2.19019
1.1723
1.85138
1.56556
1.39529
1.89384
0.807403
2.15346
0.240651
2.26171
-0.248031
2.28073
-0.72286
2.20096
-1.12677
1.96114
-1.47428
1.67451
-1.8338
1.37745
-2.10157
1.00687
-2.2516
0.617233
-2.36176
0.173869
-2.37564
-0.401327
-2.29939
-0.983416
-2.18864
-1.49186
-1.92801
-2.44956
-2.28569
-2.46072
-2.10612
-2.2815
-1.88483
-1.99237
-1.63262
-1.56011
-1.39721
-1.04576
-1.06175
-0.582779
-0.606549
-0.131948
-0.126681
0.300434
0.407301
0.659616
0.947303
1.05553
1.38445
1.50868
1.77586
1.92152
2.10457
2.30303
2.27269
2.57007
2.33593
2.59044
2.28786
2.44647
2.06497
2.20432
1.76434
1.86645
1.40268
1.55224
0.917573
1.25406
0.40389
0.856006
-0.105985
0.40893
-0.642982
-0.0670036
-1.09559
-0.599056
-1.45654
-1.0656
-1.81313
-1.44622
-2.09952
-1.8239
-2.30539
-2.12684
-2.46951
-2.33216
-2.47992
-1.16681
-1.6383
-0.680219
-2.10183
-0.222269
-2.41557
0.129434
-2.53929
0.486459
-2.54516
0.892907
-2.38878
1.2878
-2.12282
1.71634
-1.87308
2.11691
-1.58383
2.3538
-1.23296
2.47441
-0.850378
2.48504
-0.329516
2.33016
0.308659
2.09895
0.908125
1.79288
1.44483
1.33862
1.85684
0.830114
2.07269
0.301045
2.22424
-0.286784
2.368
-0.830387
2.43279
-1.31532
2.44628
-1.80143
2.35132
-2.18851
2.0504
-2.44944
1.65474
-2.63731
1.23358
-2.66903
0.761134
-2.55205
0.320663
-2.36775
-0.10824
-2.04425
-0.621579
-1.59697
-1.13254
0.702527
1.23632
0.0861633
1.58332
-0.547178
1.83557
-1.18945
2.04215
-1.68994
2.17769
-2.00945
2.33769
-2.23416
2.49523
-2.33813
2.51248
-2.37637
2.40665
-2.44522
2.15862
-2.43541
1.72052
-2.27993
1.22373
-2.00612
0.719247
-1.54925
0.157738
-0.979382
-0.376079
-0.461386
-0.871031
0.0291107
-1.37629
0.502243
-1.78026
0.921643
-2.05668
1.38142
-2.27424
1.84862
-2.36681
2.17355
-2.3484
2.37116
-2.29709
2.43939
-2.12939
2.3518
-1.83779
2.24578
-1.49184
2.14939
-1.01771
1.95774
-0.433383
1.69043
0.151705
1.31278
0.757438
2.43444
2.23292
2.48549
1.80472
2.42668
1.27138
2.24168
0.712739
2.05972
0.138436
1.90448
-0.322267
1.68056
-0.672156
1.41511
-1.03739
1.06343
-1.39819
0.539834
-1.76743
-0.0402705
-2.17247
-0.604195
-2.45262
-1.159
-2.53955
-1.59006
-2.50116
-1.89054
-2.30952
-2.14287
-2.02379
-2.26938
-1.74867
-2.25514
-1.3944
-2.16051
-0.933343
-1.91239
-0.448012
-1.53917
0.0847507
-1.15734
0.597389
-0.728732
0.972422
-0.277965
1.29811
0.115064
1.62518
0.533937
1.91196
0.985826
2.21784
1.39743
2.48139
1.8271
2.55096
2.22727
2.4608
2.27196
1.93791
2.48784
1.47443
2.54678
1.02188
2.38287
0.624646
2.12914
0.217899
1.86059
-0.141252
1.5513
-0.485717
1.27179
-0.918692
0.969594
-1.36159
0.512574
-1.77217
-0.0334857
-2.16177
-0.613415
-2.39498
-1.2122
-2.44209
-1.67836
-2.3876
-1.98647
-2.18546
-2.23543
-1.86254
-2.3818
-1.50612
-2.43003
-1.04183
-2.434
-0.478322
-2.29515
0.0823545
-2.01764
0.672012
-1.71729
1.23948
-1.36338
1.66956
-0.969717
2.01658
-0.593105
2.27565
-0.127477
2.38546
0.434597
2.44363
0.975421
2.46257
1.49875
2.36465
1.94295
2.20279
0.201681
0.850975
-0.39287
1.3945
-0.871242
1.83472
-1.29112
2.14369
-1.59447
2.27456
-1.81408
2.3622
-2.05619
2.44837
-2.25485
2.44778
-2.3912
2.38035
-2.50267
2.18586
-2.46867
1.77044
-2.25751
1.25234
-1.94594
0.710952
-1.49062
0.138308
-0.94015
-0.363238
-0.416526
-0.801883
0.127094
-1.26894
0.678501
-1.68115
1.15565
-2.00422
1.62224
-2.28056
2.05517
-2.42257
2.35167
-2.43993
2.56131
-2.42758
2.66144
-2.31421
2.56729
-2.08292
2.36001
-1.79524
2.05778
-1.3805
1.61945
-0.865017
1.1568
-0.366935
0.690585
0.15554
-1.64684
-2.06639
-1.06437
-2.35287
-0.411857
-2.44447
0.141227
-2.39516
0.621202
-2.34329
1.04
-2.25028
1.3729
-2.11313
1.73625
-1.97707
2.12107
-1.72596
2.39267
-1.33073
2.55614
-0.870231
2.57566
-0.303473
2.39253
0.315374
2.13455
0.851413
1.85033
1.33523
1.47831
1.74316
1.08006
1.99196
0.643148
2.15856
0.102838
2.24656
-0.425221
2.18717
-0.890141
2.06655
-1.33664
1.89423
-1.68401
1.60238
-1.93976
1.26668
-2.18837
0.879731
-2.34946
0.369355
-2.40375
-0.167608
-2.41091
-0.696008
-2.28501
-1.24365
-2.01884
-1.6924
-2.62901
-2.54204
-2.47618
-2.31545
-2.12608
-1.95432
-1.74242
-1.55141
-1.33507
-1.23275
-0.947084
-0.908253
-0.648098
-0.521333
-0.3197
-0.0991723
0.0873929
0.43092
0.516183
1.00952
1.01959
1.47959
1.5424
1.86144
1.93922
2.14954
2.23156
2.295
2.39694
2.39726
2.36231
2.45192
2.21886
2.35181
1.98173
2.14629
1.58753
1.84454
1.13034
1.41296
0.641813
0.981156
0.0920686
0.58643
-0.399658
0.152477
-0.811969
-0.268693
-1.22063
-0.694138
-1.56502
-1.19604
-1.86063
-1.66573
-2.17506
-2.04869
-2.40281
-2.37219
-2.50769
-2.52895
-1.70661
-1.16915
-2.04923
-0.580025
-2.19709
0.0353056
-2.28341
0.591254
-2.30602
0.971954
-2.30261
1.26924
-2.32202
1.53795
-2.2177
1.75369
-1.92789
2.01186
-1.52224
2.28908
-0.981419
2.44697
-0.387667
2.49422
0.123079
2.39471
0.613631
2.07821
1.10278
1.66191
1.52291
1.19707
1.92314
0.640675
2.25389
0.079035
2.39788
-0.48339
2.43017
-1.10067
2.39231
-1.65069
2.25418
-2.07775
2.10837
-2.41209
1.93451
-2.56444
1.61211
-2.55741
1.18768
-2.50073
0.676427
-2.34782
0.0521859
-2.11495
-0.543641
-1.87014
-1.05151
-1.51923
0.736279
0.146983
1.34443
-0.41802
1.87798
-0.856705
2.19571
-1.20476
2.36284
-1.59498
2.42074
-1.97676
2.35289
-2.31316
2.28486
-2.59754
2.23755
-2.68114
2.11154
-2.54864
1.93116
-2.32363
1.64845
-2.00068
1.16745
-1.62102
0.594722
-1.25559
0.004748
-0.801885
-0.599827
-0.253637
-1.0943
0.272746
-1.47305
0.786766
-1.83491
1.24214
-2.12242
1.55995
-2.32653
1.8486
-2.48511
2.14041
-2.48109
2.35014
-2.29778
2.50492
-2.02055
2.55247
-1.6062
2.38982
-1.10033
2.10923
-0.615572
1.76014
-0.103793
1.31041
0.413989
0.858931
2.19008
2.52912
1.78142
2.6399
1.3892
2.56979
0.977457
2.35869
0.595581
2.00366
0.184889
1.64909
-0.35797
1.33614
-0.918779
0.988894
-1.41189
0.656871
-1.83701
0.307671
-2.09956
-0.164404
-2.23577
-0.684964
-2.36759
-1.20962
-2.42658
-1.73779
-2.37261
-2.10924
-2.23522
-2.26857
-1.93199
-2.29379
-1.50685
-2.15719
-1.10321
-1.91784
-0.686862
-1.68712
-0.249419
-1.39265
0.163444
-1.02352
0.64029
-0.646247
1.1563
-0.191556
1.57869
0.318272
1.9339
0.787604
2.21002
1.26974
2.342
1.72914
2.41737
2.05464
2.4341
2.29362
2.24052
2.35868
1.95342
2.30732
1.50193
2.25277
0.892391
2.22858
0.312497
2.11691
-0.154885
1.91655
-0.571212
1.58541
-0.894921
1.08014
-1.16665
0.557445
-1.49232
0.0847855
-1.80157
-0.402082
-2.07325
-0.85819
-2.34763
-1.30305
-2.49428
-1.78271
-2.45031
-2.15138
-2.25648
-2.3471
-1.84868
-2.43936
-1.28328
-2.39786
-0.712267
-2.27371
-0.120509
-2.16132
0.460595
-1.96202
0.945565
-1.64028
1.39916
-1.26818
1.79907
-0.801745
2.05819
-0.278661
2.25988
0.201385
2.41901
0.711013
2.4709
1.24882
2.47383
1.70507
2.38365
2.09802
0.730358
0.246889
1.09807
-0.421889
1.42719
-1.09527
1.7287
-1.62939
2.09179
-2.01419
2.44118
-2.18498
2.60008
-2.21607
2.59383
-2.26539
2.45132
-2.29088
2.16656
-2.26918
1.85982
-2.23911
1.5212
-2.09393
1.03947
-1.81029
0.486239
-1.45536
-0.0835636
-0.95499
-0.663496
-0.331303
-1.12244
0.284785
-1.46028
0.902392
-1.79276
1.47268
-2.07329
1.90269
-2.28667
2.26659
-2.46847
2.54841
-2.51174
2.64226
-2.41263
2.59769
-2.26629
2.41889
-2.00623
2.08472
-1.61596
1.73802
-1.16183
1.40613
-0.594095
0.996386
0.0251593
0.543306
-1.53109
-1.10592
-2.00172
-0.784792
-2.42004
-0.398061
-2.71764
0.126848
-2.73044
0.696408
-2.48389
1.28486
-2.17686
1.78398
-1.85762
2.07901
-1.56617
2.28146
-1.34076
2.44448
-1.03668
2.50102
-0.608734
2.48296
-0.147341
2.34304
0.379697
2.00638
0.931937
1.6057
1.39135
1.21196
1.79083
0.779734
2.09298
0.366743
2.20576
-0.0547529
2.22584
-0.561633
2.19298
-1.04211
2.05529
-1.44906
1.86755
-1.8397
1.57713
-2.14387
1.08848
-2.35621
0.521703
-2.52238
-0.0359902
-2.52124
-0.573273
-2.32876
-0.988553
-2.05778
-1.32541
-1.70661
-2.28819
-2.3196
-2.2602
-2.37591
-2.1834
-2.25675
-2.02796
-1.87023
-1.6629
-1.32887
-1.13478
-0.70506
-0.624669
-0.149484
-0.137143
0.199124
0.323686
0.473015
0.730388
0.78858
1.18879
1.133
1.66649
1.55767
2.01222
1.98609
2.24465
2.25768
2.36721
2.40116
2.34884
2.40262
2.30145
2.17695
2.22167
1.80887
2.0006
1.34852
1.69652
0.80742
1.33451
0.34024
0.880213
-0.0381809
0.431865
-0.448773
-0.0164876
-0.876817
-0.555945
-1.33943
-1.09057
-1.84377
-1.5516
-2.21081
-1.9477
-2.38375
-2.18344
-2.45124
-2.29137
-2.40188
-1.27475
-1.60043
-0.953078
-2.00964
-0.540049
-2.33805
-0.0272835
-2.48625
0.637199
-2.50006
1.31652
-2.36008
1.76471
-2.14577
1.98244
-1.95785
2.04747
-1.67793
2.02973
-1.25031
2.10766
-0.748724
2.27606
-0.163618
2.35065
0.419532
2.29987
0.878149
2.09014
1.29617
1.66379
1.70116
1.12825
2.01381
0.507708
2.27106
-0.23671
2.43852
-0.945813
2.44102
-1.51329
2.38796
-1.94259
2.30748
-2.1705
2.10449
-2.28385
1.80592
-2.42854
1.3908
-2.52759
0.818819
-2.51892
0.246293
-2.40072
-0.253551
-2.0828
-0.748447
-1.63205
-1.20158
0.561301
1.00053
0.045642
1.34248
-0.513686
1.74451
-1.09303
2.2202
-1.53902
2.58627
-1.852
2.76169
-2.15794
2.67525
-2.41105
2.32076
-2.57571
1.94358
-2.65095
1.6948
-2.51328
1.50321
-2.187
1.32793
-1.82318
1.04861
-1.40973
0.549013
-0.95714
-0.021909
-0.51956
-0.560457
-0.016281
-1.11156
0.517398
-1.62013
0.950655
-2.07211
1.33546
-2.46477
1.69946
-2.62858
2.00185
-2.53838
2.30959
-2.32416
2.56026
-2.00869
2.59781
-1.66721
2.46922
-1.36223
2.22548
-0.958846
1.86774
-0.432361
1.51335
0.10755
1.14944
0.657053
2.28288
2.10623
2.35512
1.72603
2.40608
1.273
2.40656
0.824673
2.38064
0.340614
2.21703
-0.128724
1.76289
-0.618366
1.14722
-1.18519
0.549088
-1.67639
0.052703
-2.01182
-0.239882
-2.24444
-0.434927
-2.33937
-0.772075
-2.34846
-1.23115
-2.35775
-1.69822
-2.25616
-2.06858
-2.00924
-2.18658
-1.70963
-2.12875
-1.34078
-2.07502
-0.947022
-1.96293
-0.595319
-1.73627
-0.159395
-1.40892
0.393955
-0.909383
0.94599
-0.326981
1.47209
0.173981
1.88937
0.632747
2.10582
1.06688
2.2469
1.44559
2.37171
1.84267
2.40145
2.19166
2.3556
2.22396
1.9451
2.38832
1.54163
2.43514
1.16305
2.34072
0.824163
2.21955
0.381561
2.05421
-0.160023
1.72311
-0.76738
1.28678
-1.38036
0.793255
-1.77147
0.248177
-1.88394
-0.222492
-1.90889
-0.629555
-1.95974
-1.08835
-2.12569
-1.52935
-2.40996
-1.89883
-2.47295
-2.20155
-2.13396
-2.33599
-1.58506
-2.34121
-0.967157
-2.3572
-0.386557
-2.3259
0.0795093
-2.19131
0.560238
-1.95573
1.07846
-1.52449
1.53972
-0.958003
1.95533
-0.435904
2.26093
0.0527033
2.38912
0.524483
2.46314
0.952295
2.50381
1.42689
2.41559
1.90392
2.22447
0.334667
0.879582
-0.231559
1.29189
-0.737837
1.66823
-1.20839
2.03862
-1.58719
2.31701
-1.9243
2.52083
-2.30902
2.59423
-2.59054
2.46255
-2.63745
2.25484
-2.47595
2.02184
-2.12829
1.68709
-1.76426
1.28422
-1.6003
0.791681
-1.52121
0.178638
-1.24217
-0.38449
-0.715134
-0.822454
-0.0584501
-1.21592
0.659152
-1.55594
1.2768
-1.89224
1.78561
-2.27631
2.15683
-2.5415
2.36246
-2.6012
2.51651
-2.52601
2.59232
-2.30967
2.48576
-2.02248
2.27046
-1.75665
1.9802
-1.39374
1.59935
-0.886828
1.22197
-0.334269
0.80868
0.255928
-1.44451
-1.83243
-1.02001
-2.21283
-0.555083
-2.44855
-0.0878352
-2.51528
0.46488
-2.52809
1.04933
-2.45989
1.51155
-2.29225
1.8832
-2.03429
2.17973
-1.56884
2.36445
-0.939758
2.51487
-0.378917
2.57872
0.0406132
2.42097
0.351636
2.11911
0.686732
1.75393
1.1921
1.34827
1.56229
1.01504
1.80011
0.706166
2.15041
0.262593
2.40958
-0.268795
2.40259
-0.821765
2.24736
-1.3652
1.99926
-1.756
1.63794
-2.00264
1.23966
-2.2381
0.782353
-2.41394
0.22629
-2.48576
-0.285242
-2.46324
-0.713072
-2.24706
-1.13575
-1.87857
-1.51669
-2.3729
-2.34067
-2.33418
-2.30628
-2.17821
-2.14147
-1.9428
-1.80539
-1.56874
-1.39072
-1.10854
-0.893493
-0.684825
-0.381967
-0.219123
0.0565731
0.331199
0.531036
0.877194
1.05857
1.39099
1.5177
1.76731
1.89576
1.88021
2.13533
1.85594
2.18542
1.86331
2.20801
1.77271
2.27165
1.71804
2.28146
1.73608
2.22244
1.61283
2.01667
1.30533
1.58918
0.837322
1.09606
0.254511
0.630142
-0.273107
0.14295
-0.734768
-0.324975
-1.22049
-0.803019
-1.65797
-1.34297
-2.01274
-1.79186
-2.29184
-2.07553
-2.39594
-2.26908
-2.3739
-2.35437
-1.48208
-1.0437
-1.89506
-0.653771
-2.22598
-0.197749
-2.46989
0.345546
-2.51763
0.857549
-2.40853
1.33818
-2.28342
1.75033
-2.09252
2.02694
-1.80057
2.26427
-1.43259
2.4596
-0.916493
2.47176
-0.3292
2.29674
0.155659
1.93798
0.573205
1.43781
0.967376
1.07542
1.33388
0.789779
1.7669
0.387092
2.2024
0.0356543
2.46115
-0.41676
2.56149
-1.01763
2.53359
-1.58345
2.37108
-2.0121
2.18768
-2.3151
1.96163
-2.45694
1.56456
-2.51559
1.06277
-2.56712
0.522777
-2.47846
-0.0459049
-2.21087
-0.527007
-1.85448
-0.93941
-1.40657
0.825462
0.313401
1.26029
-0.311794
1.65127
-0.882829
1.96997
-1.32666
2.29114
-1.71331
2.56038
-2.01729
2.62926
-2.27657
2.54756
-2.53619
2.36463
-2.63873
2.06154
-2.52416
1.72603
-2.28921
1.34533
-1.94632
0.811304
-1.57516
0.211964
-1.26106
-0.29422
-0.873764
-0.761653
-0.362224
-1.23106
0.177655
-1.51215
0.738003
-1.77897
1.24136
-2.11158
1.59373
-2.42479
1.90984
-2.61436
2.22771
-2.51579
2.44556
-2.20228
2.56542
-1.86855
2.5377
-1.51562
2.30227
-1.13462
2.00584
-0.726802
1.71347
-0.188123
1.34231
0.414651
0.915245
2.23681
2.4405
1.89593
2.44192
1.47977
2.3839
1.00076
2.32549
0.572267
2.17674
0.158921
1.94316
-0.368333
1.57814
-0.932372
1.02479
-1.45356
0.441796
-1.90161
-0.0674748
-2.14922
-0.543581
-2.23149
-0.94578
-2.30315
-1.31047
-2.33306
-1.77132
-2.29295
-2.19337
-2.19692
-2.36431
-1.94067
-2.21071
-1.55711
-1.9215
-1.18718
-1.81337
-0.787322
-1.83927
-0.330382
-1.69617
0.144652
-1.27732
0.701449
-0.696783
1.26785
-0.0428551
1.67632
0.520106
1.96602
0.89428
2.18022
1.23831
2.29975
1.62342
2.4055
1.97148
2.44481
2.27477
2.15173
2.3721
1.79359
2.39189
1.3674
2.35574
0.890773
2.31354
0.482548
2.17156
0.112943
1.93584
-0.364212
1.55835
-0.901613
0.997391