# vtk DataFile Version 3.1
vtk output
ASCII
DATASET POLYDATA
POINTS 4260 FLOAT
2.83277e-16          -1    -3.14159
-0.104528 -0.994522  -3.14159
 0.104528 -0.994522  -3.14159
-0.207912 -0.978148  -3.14159
 0.207912 -0.978148  -3.14159
-0.309017 -0.951057  -3.14159
 0.309017 -0.951057  -3.14159
-0.406737 -0.913545  -3.14159
 0.406737 -0.913545  -3.14159
     -0.5 -0.866025  -3.14159
      0.5 -0.866025  -3.14159
-0.587785 -0.809017  -3.14159
 0.587785 -0.809017  -3.14159
-0.669131 -0.743145  -3.14159
 0.669131 -0.743145  -3.14159
-0.743145 -0.669131  -3.14159
 0.743145 -0.669131  -3.14159
-0.809017 -0.587785  -3.14159
 0.809017 -0.587785  -3.14159
-0.866025      -0.5  -3.14159
0.866025     -0.5 -3.14159
-0.913545 -0.406737  -3.14159
 0.913545 -0.406737  -3.14159
-0.951057 -0.309017  -3.14159
 0.951057 -0.309017  -3.14159
-0.978148 -0.207912  -3.14159
 0.978148 -0.207912  -3.14159
-0.994522 -0.104528  -3.14159
 0.994522 -0.104528  -3.14159
          -1 -5.66554e-16     -3.14159
       1        0 -3.14159
-0.994522  0.104528  -3.14159
0.994522 0.104528 -3.14159
-0.978148  0.207912  -3.14159
0.978148 0.207912 -3.14159
-0.951057  0.309017  -3.14159
0.951057 0.309017 -3.14159
-0.913545  0.406737  -3.14159
0.913545 0.406737 -3.14159
-0.866025       0.5  -3.14159
0.866025      0.5 -3.14159
-0.809017  0.587785  -3.14159
0.809017 0.587785 -3.14159
-0.743145  0.669131  -3.14159
0.743145 0.669131 -3.14159
-0.669131  0.743145  -3.14159
0.669131 0.743145 -3.14159
-0.587785  0.809017  -3.14159
0.587785 0.809017 -3.14159
    -0.5 0.866025 -3.14159
     0.5 0.866025 -3.14159
-0.406737  0.913545  -3.14159
0.406737 0.913545 -3.14159
-0.309017  0.951057  -3.14159
0.309017 0.951057 -3.14159
-0.207912  0.978148  -3.14159
0.207912 0.978148 -3.14159
-0.104528  0.994522  -3.14159
0.104528 0.994522 -3.14159
-1.83697e-16            1     -3.14159
-0.052336  -0.99863   -3.0509
0.052336 -0.99863  -3.0509
-0.156434 -0.987688   -3.0509
 0.156434 -0.987688   -3.0509
-0.258819 -0.965926   -3.0509
 0.258819 -0.965926   -3.0509
-0.358368  -0.93358   -3.0509
0.358368 -0.93358  -3.0509
 -0.45399 -0.891007   -3.0509
  0.45399 -0.891007   -3.0509
-0.544639 -0.838671   -3.0509
 0.544639 -0.838671   -3.0509
 -0.62932 -0.777146   -3.0509
  0.62932 -0.777146   -3.0509
-0.707107 -0.707107   -3.0509
 0.707107 -0.707107   -3.0509
-0.777146  -0.62932   -3.0509
0.777146 -0.62932  -3.0509
-0.838671 -0.544639   -3.0509
 0.838671 -0.544639   -3.0509
-0.891007  -0.45399   -3.0509
0.891007 -0.45399  -3.0509
 -0.93358 -0.358368   -3.0509
  0.93358 -0.358368   -3.0509
-0.965926 -0.258819   -3.0509
 0.965926 -0.258819   -3.0509
-0.987688 -0.156434   -3.0509
 0.987688 -0.156434   -3.0509
 -0.99863 -0.052336   -3.0509
  0.99863 -0.052336   -3.0509
-0.99863 0.052336  -3.0509
 0.99863 0.052336  -3.0509
-0.987688  0.156434   -3.0509
0.987688 0.156434  -3.0509
-0.965926  0.258819   -3.0509
0.965926 0.258819  -3.0509
-0.93358 0.358368  -3.0509
 0.93358 0.358368  -3.0509
-0.891007   0.45399   -3.0509
0.891007  0.45399  -3.0509
-0.838671  0.544639   -3.0509
0.838671 0.544639  -3.0509
-0.777146   0.62932   -3.0509
0.777146  0.62932  -3.0509
-0.707107  0.707107   -3.0509
0.707107 0.707107  -3.0509
-0.62932 0.777146  -3.0509
 0.62932 0.777146  -3.0509
-0.544639  0.838671   -3.0509
0.544639 0.838671  -3.0509
-0.45399 0.891007  -3.0509
 0.45399 0.891007  -3.0509
-0.358368   0.93358   -3.0509
0.358368  0.93358  -3.0509
-0.258819  0.965926   -3.0509
0.258819 0.965926  -3.0509
-0.156434  0.987688   -3.0509
0.156434 0.987688  -3.0509
-0.052336   0.99863   -3.0509
0.052336  0.99863  -3.0509
6.12323e-17          -1    -2.96021
-0.104528 -0.994522  -2.96021
 0.104528 -0.994522  -2.96021
-0.207912 -0.978148  -2.96021
 0.207912 -0.978148  -2.96021
-0.309017 -0.951057  -2.96021
 0.309017 -0.951057  -2.96021
-0.406737 -0.913545  -2.96021
 0.406737 -0.913545  -2.96021
     -0.5 -0.866025  -2.96021
      0.5 -0.866025  -2.96021
-0.587785 -0.809017  -2.96021
 0.587785 -0.809017  -2.96021
-0.669131 -0.743145  -2.96021
 0.669131 -0.743145  -2.96021
-0.743145 -0.669131  -2.96021
 0.743145 -0.669131  -2.96021
-0.809017 -0.587785  -2.96021
 0.809017 -0.587785  -2.96021
-0.866025      -0.5  -2.96021
0.866025     -0.5 -2.96021
-0.913545 -0.406737  -2.96021
 0.913545 -0.406737  -2.96021
-0.951057 -0.309017  -2.96021
 0.951057 -0.309017  -2.96021
-0.978148 -0.207912  -2.96021
 0.978148 -0.207912  -2.96021
-0.994522 -0.104528  -2.96021
 0.994522 -0.104528  -2.96021
          -1 -5.66554e-16     -2.96021
          1 2.77556e-17    -2.96021
-0.994522  0.104528  -2.96021
0.994522 0.104528 -2.96021
-0.978148  0.207912  -2.96021
0.978148 0.207912 -2.96021
-0.951057  0.309017  -2.96021
0.951057 0.309017 -2.96021
-0.913545  0.406737  -2.96021
0.913545 0.406737 -2.96021
-0.866025       0.5  -2.96021
0.866025      0.5 -2.96021
-0.809017  0.587785  -2.96021
0.809017 0.587785 -2.96021
-0.743145  0.669131  -2.96021
0.743145 0.669131 -2.96021
-0.669131  0.743145  -2.96021
0.669131 0.743145 -2.96021
-0.587785  0.809017  -2.96021
0.587785 0.809017 -2.96021
    -0.5 0.866025 -2.96021
     0.5 0.866025 -2.96021
-0.406737  0.913545  -2.96021
0.406737 0.913545 -2.96021
-0.309017  0.951057  -2.96021
0.309017 0.951057 -2.96021
-0.207912  0.978148  -2.96021
0.207912 0.978148 -2.96021
-0.104528  0.994522  -2.96021
0.104528 0.994522 -2.96021
-1.83697e-16            1     -2.96021
-0.052336  -0.99863  -2.86952
0.052336 -0.99863 -2.86952
-0.156434 -0.987688  -2.86952
 0.156434 -0.987688  -2.86952
-0.258819 -0.965926  -2.86952
 0.258819 -0.965926  -2.86952
-0.358368  -0.93358  -2.86952
0.358368 -0.93358 -2.86952
 -0.45399 -0.891007  -2.86952
  0.45399 -0.891007  -2.86952
-0.544639 -0.838671  -2.86952
 0.544639 -0.838671  -2.86952
 -0.62932 -0.777146  -2.86952
  0.62932 -0.777146  -2.86952
-0.707107 -0.707107  -2.86952
 0.707107 -0.707107  -2.86952
-0.777146  -0.62932  -2.86952
0.777146 -0.62932 -2.86952
-0.838671 -0.544639  -2.86952
 0.838671 -0.544639  -2.86952
-0.891007  -0.45399  -2.86952
0.891007 -0.45399 -2.86952
 -0.93358 -0.358368  -2.86952
  0.93358 -0.358368  -2.86952
-0.965926 -0.258819  -2.86952
 0.965926 -0.258819  -2.86952
-0.987688 -0.156434  -2.86952
 0.987688 -0.156434  -2.86952
 -0.99863 -0.052336  -2.86952
  0.99863 -0.052336  -2.86952
-0.99863 0.052336 -2.86952
 0.99863 0.052336 -2.86952
-0.987688  0.156434  -2.86952
0.987688 0.156434 -2.86952
-0.965926  0.258819  -2.86952
0.965926 0.258819 -2.86952
-0.93358 0.358368 -2.86952
 0.93358 0.358368 -2.86952
-0.891007   0.45399  -2.86952
0.891007  0.45399 -2.86952
-0.838671  0.544639  -2.86952
0.838671 0.544639 -2.86952
-0.777146   0.62932  -2.86952
0.777146  0.62932 -2.86952
-0.707107  0.707107  -2.86952
0.707107 0.707107 -2.86952
-0.62932 0.777146 -2.86952
 0.62932 0.777146 -2.86952
-0.544639  0.838671  -2.86952
0.544639 0.838671 -2.86952
-0.45399 0.891007 -2.86952
 0.45399 0.891007 -2.86952
-0.358368   0.93358  -2.86952
0.358368  0.93358 -2.86952
-0.258819  0.965926  -2.86952
0.258819 0.965926 -2.86952
-0.156434  0.987688  -2.86952
0.156434 0.987688 -2.86952
-0.052336   0.99863  -2.86952
0.052336  0.99863 -2.86952
6.12323e-17          -1    -2.77883
-0.104528 -0.994522  -2.77883
 0.104528 -0.994522  -2.77883
-0.207912 -0.978148  -2.77883
 0.207912 -0.978148  -2.77883
-0.309017 -0.951057  -2.77883
 0.309017 -0.951057  -2.77883
-0.406737 -0.913545  -2.77883
 0.406737 -0.913545  -2.77883
     -0.5 -0.866025  -2.77883
      0.5 -0.866025  -2.77883
-0.587785 -0.809017  -2.77883
 0.587785 -0.809017  -2.77883
-0.669131 -0.743145  -2.77883
 0.669131 -0.743145  -2.77883
-0.743145 -0.669131  -2.77883
 0.743145 -0.669131  -2.77883
-0.809017 -0.587785  -2.77883
 0.809017 -0.587785  -2.77883
-0.866025      -0.5  -2.77883
0.866025     -0.5 -2.77883
-0.913545 -0.406737  -2.77883
 0.913545 -0.406737  -2.77883
-0.951057 -0.309017  -2.77883
 0.951057 -0.309017  -2.77883
-0.978148 -0.207912  -2.77883
 0.978148 -0.207912  -2.77883
-0.994522 -0.104528  -2.77883
 0.994522 -0.104528  -2.77883
          -1 -1.22465e-16     -2.77883
          1 5.55112e-17    -2.77883
-0.994522  0.104528  -2.77883
0.994522 0.104528 -2.77883
-0.978148  0.207912  -2.77883
0.978148 0.207912 -2.77883
-0.951057  0.309017  -2.77883
0.951057 0.309017 -2.77883
-0.913545  0.406737  -2.77883
0.913545 0.406737 -2.77883
-0.866025       0.5  -2.77883
0.866025      0.5 -2.77883
-0.809017  0.587785  -2.77883
0.809017 0.587785 -2.77883
-0.743145  0.669131  -2.77883
0.743145 0.669131 -2.77883
-0.669131  0.743145  -2.77883
0.669131 0.743145 -2.77883
-0.587785  0.809017  -2.77883
0.587785 0.809017 -2.77883
    -0.5 0.866025 -2.77883
     0.5 0.866025 -2.77883
-0.406737  0.913545  -2.77883
0.406737 0.913545 -2.77883
-0.309017  0.951057  -2.77883
0.309017 0.951057 -2.77883
-0.207912  0.978148  -2.77883
0.207912 0.978148 -2.77883
-0.104528  0.994522  -2.77883
0.104528 0.994522 -2.77883
-1.83697e-16            1     -2.77883
-0.052336  -0.99863  -2.68814
0.052336 -0.99863 -2.68814
-0.156434 -0.987688  -2.68814
 0.156434 -0.987688  -2.68814
-0.258819 -0.965926  -2.68814
 0.258819 -0.965926  -2.68814
-0.358368  -0.93358  -2.68814
0.358368 -0.93358 -2.68814
 -0.45399 -0.891007  -2.68814
  0.45399 -0.891007  -2.68814
-0.544639 -0.838671  -2.68814
 0.544639 -0.838671  -2.68814
 -0.62932 -0.777146  -2.68814
  0.62932 -0.777146  -2.68814
-0.707107 -0.707107  -2.68814
 0.707107 -0.707107  -2.68814
-0.777146  -0.62932  -2.68814
0.777146 -0.62932 -2.68814
-0.838671 -0.544639  -2.68814
 0.838671 -0.544639  -2.68814
-0.891007  -0.45399  -2.68814
0.891007 -0.45399 -2.68814
 -0.93358 -0.358368  -2.68814
  0.93358 -0.358368  -2.68814
-0.965926 -0.258819  -2.68814
 0.965926 -0.258819  -2.68814
-0.987688 -0.156434  -2.68814
 0.987688 -0.156434  -2.68814
 -0.99863 -0.052336  -2.68814
  0.99863 -0.052336  -2.68814
-0.99863 0.052336 -2.68814
 0.99863 0.052336 -2.68814
-0.987688  0.156434  -2.68814
0.987688 0.156434 -2.68814
-0.965926  0.258819  -2.68814
0.965926 0.258819 -2.68814
-0.93358 0.358368 -2.68814
 0.93358 0.358368 -2.68814
[...]
POINT_DATA 4260
SCALARS Field double
LOOKUP_TABLE default
1.31753
0.847839
1.74386
0.341088
2.08854
-0.179909
2.33241
-0.681249
2.48231
-1.16302
2.51872
-1.60502
2.44053
-1.97096
2.26808
-2.2578
1.99142
-2.44768
1.61907
-2.51551
1.18406
-2.47658
0.691872
-2.33342
0.165288
-2.07879
-0.353954
-1.74176
-0.859188
-1.3357
-1.33231
-0.862488
-1.7384
-0.358653
-2.07642
0.157337
-2.33211
0.680618
-2.47463
1.17214
-2.51064
1.61016
-2.43923
1.9871
-2.2479
2.26577
-1.96315
2.43469
-1.60092
2.50504
-1.16003
2.46193
-0.673388
2.31267
-0.161856
2.07939
0.369301
1.75186
0.879249
1.34146
2.43623
2.50855
2.25763
2.4641
1.99973
2.31791
1.65571
2.06106
1.23681
1.70642
0.770572
1.2897
0.256983
0.814157
-0.278928
0.296856
-0.794171
-0.225149
-1.2789
-0.744893
-1.70801
-1.23869
-2.04737
-1.66429
-2.3009
-2.01646
-2.45839
-2.28249
-2.49986
-2.43734
-2.44232
-2.49339
-2.28711
-2.45098
-2.02365
-2.29307
-1.67657
-2.03827
-1.25558
-1.69611
-0.762294
-1.26394
-0.238117
-0.778286
0.289725
-0.265262
0.808383
0.267337
1.27703
0.78076
1.68058
1.25304
2.02347
1.68252
2.27884
2.03512
2.43772
2.29195
2.50514
2.45631
1.7716
2.09424
1.38132
2.32446
0.92019
2.45736
0.406511
2.50105
-0.116527
2.43105
-0.637174
2.24602
-1.13268
1.9666
-1.56642
1.58918
-1.93832
1.13555
-2.23512
0.64479
-2.42479
0.123572
-2.51049
-0.403463
-2.48715
-0.898949
-2.33946
-1.36044
-2.09323
-1.76909
-1.76508
-2.09413
-1.35415
-2.33912
-0.891908
-2.48957
-0.395852
-2.51876
0.132952
-2.4379
0.656598
-2.24783
1.14821
-1.94489
1.59948
-1.56573
1.97261
-1.13079
2.24996
-0.644311
2.43876
-0.140151
2.51776
0.367817
2.48252
0.87758
2.34968
1.35
2.10683
1.76214
-0.0103296
-0.522755
0.496269
-1.02479
0.995998
-1.47786
1.45289
-1.87373
1.8471
-2.19151
2.1726
-2.39773
2.3941
-2.5005
2.50189
-2.50088
2.50773
-2.38466
2.39653
-2.17167
2.17664
-1.86917
1.87441
-1.47004
1.48684
-1.00696
1.03258
-0.504923
0.545933
0.0268656
0.0286685
0.547551
-0.49812
1.03438
-0.997444
1.48709
-1.46283
1.87399
-1.86803
2.17737
-2.17535
2.39847
-2.38698
2.50837
-2.49516
2.49829
-2.48531
2.38609
-2.37941
2.16395
-2.18113
1.84311
-1.87997
1.45563
-1.50091
1.00139
-1.05583
0.495838
-0.549288
-0.0237825
-2.11148
-1.78532
-2.3409
-1.39024
-2.47896
-0.93773
-2.5173
-0.429765
-2.4319
0.0941577
-2.23887
0.610961
-1.94928
1.11199
-1.56288
1.55766
-1.11582
1.9297
-0.629852
2.22679
-0.10668
2.41854
0.418505
2.4988
0.922111
2.48164
1.39693
2.35319
1.80327
2.12124
2.11999
1.80925
2.35156
1.40988
2.47589
0.939097
2.48905
0.433291
2.40777
-0.0986662
2.2175
-0.627296
1.92146
-1.11156
1.54753
-1.54873
1.09743
-1.92235
0.592436
-2.20453
0.0749085
-2.4012
-0.446598
-2.50049
-0.951902
-2.47963
-1.40458
-2.35473
-1.80257
-2.13026
-2.42432
-2.25716
-2.49617
-2.00261
-2.4524
-1.651
-2.30925
-1.22839
-2.06913
-0.751997
-1.72558
-0.226567
-1.30965
0.305586
-0.837558
0.815702
-0.31531
1.29717
0.214766
1.71518
0.727745
2.05259
1.21466
2.31274
1.63831
2.46727
1.98579
2.50525
2.26197
2.44083
2.43962
2.26288
2.51004
1.98087
2.48034
1.62652
2.33022
1.19943
2.06695
0.713749
1.721
0.204202
1.29585
-0.32392
0.8154
-0.847573
0.316316
-1.32351
-0.199625
-1.74331
-0.712357
-2.08901
-1.18653
-2.32959
-1.61856
-2.47224
-1.98664
-2.51395
-2.25767
-2.43634
-0.82818
-1.28965
-0.322696
-1.70585
0.19275
-2.05699
0.69771
-2.31088
1.18883
-2.47108
1.62774
-2.52613
1.99001
-2.45545
2.27336
-2.27796
2.44898
-2.00147
2.50942
-1.62688
2.47165
-1.19238
2.32278
-0.717727
2.06629
-0.20604
1.72798
0.308952
1.3063
0.811926
0.82006
1.2983
0.310931
1.72662
-0.212086
2.07343
-0.728563
2.3337
-1.2025
2.47791
-1.63231
2.50484
-2.00184
2.43463
-2.27586
2.25797
-2.45422
1.98506
-2.52794
1.64064
-2.47662
1.21844
-2.31988
0.734979
-2.06822
0.225918
-1.71651
-0.30211
-1.29494
-0.822289
1.10439
1.54239
0.612969
1.90932
0.102527
2.20848
-0.422939
2.41154
-0.938623
2.50569
-1.40453
2.49997
-1.81401
2.37624
-2.14436
2.1383
-2.36432
1.81624
-2.48327
1.4119
-2.49915
0.942554
-2.40063
0.444009
-2.21082
-0.0803405
-1.93381
-0.610381
-1.56043
-1.10409
-1.11869
-1.55162
-0.62491
-1.93237
-0.0885448
-2.2136
0.443955
-2.4024
0.94586
-2.49603
1.40967
-2.47445
1.80137
-2.35145
2.11069
-2.12974
2.34392
-1.79947
2.47487
-1.39148
2.49685
-0.928396
2.4203
-0.416531
2.22845
0.10572
1.93075
0.616154
1.55792
1.11224
2.47699
2.37335
2.48742
2.16171
2.38975
1.85023
2.18558
1.46573
1.89762
1.00699
1.5189
0.496522
1.06178
-0.0252256
0.563935
-0.549206
0.0353727
-1.04914
-0.498024
-1.48878
-0.994005
-1.86956
-1.44807
-2.17736
-1.8456
-2.38509
-2.15464
-2.49885
-2.37613
-2.50774
-2.49828
-2.39162
-2.4956
-2.17109
-2.38392
-1.85643
-2.17333
-1.45036
-1.86025
-0.99161
-1.47514
-0.500047
-1.03349
0.0202575
-0.532856
0.533379
-0.00775776
1.02172
0.515978
1.48038
1.02778
1.87053
1.48527
2.17357
1.86587
2.38979
2.17275
2.49343
2.38149
2.48438
1.93817
1.57161
2.22019
1.13474
2.41972
0.661875
2.50881
0.154978
2.48229
-0.369095
2.35431
-0.872718
2.11273
-1.3485
1.77138
-1.7732
1.36404
-2.1063
0.894595
-2.34595
0.38589
-2.48447
-0.126501
-2.50285
-0.640902
-2.41936
-1.1362
-2.2395
-1.57552
-1.95109
-1.95411
-1.57869
-2.25016
-1.13935
-2.43262
-0.638221
-2.51049
-0.116872
-2.48137
0.398643
-2.3346
0.905298
-2.09607
1.37049
-1.7748
1.77597
-1.36723
2.12005
-0.905413
2.36716
-0.406592
2.49945
0.122283
2.52592
0.639246
2.43243
1.12211
2.2267
1.56644
1.93878
-0.290183
0.23559
-0.789849
0.749048
-1.25902
1.22985
-1.68103
1.67108
-2.02271
2.03317
-2.28602
2.29794
-2.46031
2.46705
-2.51771
2.51717
-2.46679
2.4517
-2.30842
2.29372
-2.03311
2.0357
-1.67209
1.68921
-1.24679
1.2806
-0.760255
0.805977
-0.247188
0.285293
0.271928
-0.241811
0.793006
-0.765047
1.27592
-1.25549
1.69427
-1.67405
2.04454
-2.02086
2.29766
-2.28327
2.44576
-2.43843
2.50344
-2.49834
2.4527
-2.45755
2.28997
-2.29933
2.03379
-2.04524
1.67701
-1.70478
1.23551
-1.27892
0.750272
-0.804482
0.231116
-0.299837
-1.97095
-2.24431
-1.6164
-2.42826
-1.17751
-2.49848
-0.688118
-2.46726
-0.168378
-2.33716
0.370877
-2.09596
0.884056
-1.76774
1.347
-1.36583
1.75574
-0.888872
2.08012
-0.373625
2.31342
0.152864
2.46436
0.680887
2.50817
1.17005
2.43931
1.59872
2.27023
1.96832
1.98795
2.24936
1.60765
2.42722
1.16659
2.50804
0.672938
2.47031
0.152866
2.31484
-0.356851
2.0691
-0.855777
1.73217
-1.32563
1.3181
-1.73242
0.858896
-2.07353
0.354571
-2.32877
-0.176736
-2.4688
-0.693259
-2.5049
-1.1838
-2.43667
-1.62508
-2.25381
-1.9808
-2.36061
-2.47983
-2.13303
-2.49994
-1.82187
-2.41382
-1.43969
-2.20578
-0.983435
-1.90144
-0.486872
-1.51615
0.0273803
-1.05679
0.554133
-0.564194
1.05483
-0.0577491
1.50502
0.460602
1.89986
0.957094
2.20406
1.41494
2.40151
1.82827
2.50172
2.15677
2.48764
2.38158
2.36065
2.50519
2.14317
2.50678
1.82684
2.39317
1.42149
2.19062
0.961636
1.89368
0.454346
1.51486
-0.0766596
1.08121
-0.590312
0.590128
-1.08188
0.0636414
-1.53477
-0.456799
-1.91366
-0.961241
-2.2154
-1.42428
-2.4241
-1.81224
-2.51086
-2.12952
-2.48851
-2.36382
-1.05551
-0.562691
-1.51443
-0.0578518
-1.90096
0.458301
-2.20961
0.952381
-2.42048
1.40379
-2.50789
1.80976
-2.48839
2.13538
-2.36665
2.36276
-2.13643
2.49709
-1.82481
2.5154
-1.44009
2.4141
-0.978609
2.2145
-0.474438
1.91132
0.0512205
1.51884
0.586812
1.07334
1.08701
0.57894
1.52872
0.0538583
1.90923
-0.46421
2.19911
-0.968702
2.39179
-1.43748
2.49629
-1.83089
2.48919
-2.14682
2.36822
-2.37507
2.15119
-2.49167
1.83107
-2.50791
1.42694
-2.4218
0.97558
-2.21528
0.480029
-1.90971
-0.0404338
-1.52119
-0.552982
-1.05507
1.34297
0.88014
1.75162
0.364858
2.07762
-0.175885
2.31044
-0.697474
2.45984
-1.18928
2.50333
-1.62683
2.43448
-1.9781
2.26992
-2.2495
1.99894
-2.43168
1.63067
-2.50241
1.19825
-2.47354
0.706142
-2.34085
0.176253
-2.09121
-0.348851
-1.75153
-0.859983
-1.33711
-1.33637
-0.8543
-1.74194
-0.344304
-2.07656
0.171594
-2.32778
0.688631
-2.46631
1.17054
-2.49973
1.59959
-2.42779
1.97162
-2.23896
2.25077
-1.96026
2.42467
-1.60664
2.50242
-1.17401
2.46705
-0.691623
2.32428
-0.177982
2.09496
0.361044
1.76753
0.881344
1.35243
2.45971
2.51154
2.29126
2.44744
2.02713
2.29181
1.66361
2.03805
1.2225
1.69433
0.742878
1.28913
0.230744
0.821004
-0.29117
0.306735
-0.788349
-0.214347
-1.26044
-0.733737
-1.68797
-1.22847
-2.03644
-1.65783
-2.30427
-2.01663
-2.47364
-2.28969
-2.51854
-2.44853
-2.45426
-2.50363
-2.28557
-2.45624
-2.00875
-2.2921
-1.65533
-2.03248
-1.23824
-1.68793
-0.757057
-1.25568
-0.247164
-0.772018
0.270729
-0.263151
0.787501
0.263296
1.26198
0.770011
1.67578
1.23778
2.02935
1.6675
2.29273
2.02572
2.45512
2.29175
2.52085
2.46555
1.76621
2.10908
1.35938
2.3518
0.894045
2.48246
0.389233
2.51069
-0.118674
2.42088
-0.627028
2.22253
-1.11843
1.94291
-1.55525
1.57775
-1.93252
1.14181
-2.23296
0.6648
-2.42421
0.146315
-2.51184
-0.39032
-2.49268
-0.90275
-2.35039
-1.37964
-2.10755
-1.79388
-1.77833
-2.11157
-1.3623
-2.3401
-0.89402
-2.47385
-0.394144
-2.49485
0.135207
-2.41799
0.657354
-2.24093
1.14733
-1.95248
1.59765
-1.58224
1.97001
-1.14785
2.24623
-0.655456
2.4339
-0.143139
2.51287
0.371606
2.4796
0.885274
2.35037
1.35881
2.11145
1.76973
-0.026489
-0.550278
0.498724
-1.04953
1.01363
-1.48703
1.47433
-1.86344
1.86011
-2.16862
2.17083
-2.37478
2.38
-2.48769
2.48473
-2.50086
2.49818
-2.39306
2.4008
-2.18215
2.19309
-1.87843
1.89418
-1.47877
1.49854
-1.01707
1.0287
-0.516249
0.527441
0.0171961
0.00478514
0.542579
-0.515117
1.03433
-0.999381
1.48873
-1.45016
1.87302
-1.84881
2.17169
-2.15962
2.38956
-2.38066
2.49991
-2.49764
2.4937
-2.49171
2.3867
-2.38512
2.16903
-2.1848
1.85093
-1.88311
1.46418
-1.50524
1.00852
-1.06113
0.49962
-0.553379
-0.0243269
-2.14275
-1.81027
-2.3634
-1.39849
-2.481
-0.928192
-2.49741
-0.409996
-2.3999
0.112793
-2.21017
0.619389
-1.93608
1.10765
-1.56786
1.54524
-1.13241
1.91817
-0.648188
2.22417
-0.120149
2.42709
0.410703
2.51353
0.91731
2.49329
1.39332
2.35406
1.80185
2.11016
2.12278
1.79219
2.35833
1.39583
2.4828
0.934193
2.49085
0.437605
2.40158
-0.0897084
2.20508
-0.618539
1.90823
-1.10467
1.53929
-1.54239
1.09744
-1.91543
0.600751
-2.1987
0.0891643
-2.4005
-0.430115
-2.50809
-0.937612
-2.49453
-1.39703
-2.37152
-1.80491
-2.14212
-2.4541
-2.27468
-2.52404
-1.99876
-2.46627
-1.62676
-2.30439
-1.19492
-2.04971
-0.724944
-1.7022
-0.217489
-1.29405
0.295249
-0.836717
0.794217
-0.327977
1.27644
0.197207
1.70335
0.71619
2.05055
1.21575
2.31639
1.65066
2.47264
2.00141
2.51175
2.27178
2.45023
2.43902
2.27564
2.50079
1.99383
2.46797
1.63424
2.31981
1.19815
2.06075
0.704465
1.71927
0.192152
1.29894
-0.332665
0.82425
-0.849306
0.33065
-1.3179
-0.183492
-1.73219
-0.701186
-2.07485
-1.18651
-2.31548
-1.63101
-2.46238
-2.00654
-2.51287
-2.27631
-2.44636
-0.836261
-1.31161
-0.31219
-1.73063
0.217661
-2.0724
0.72549
-2.30941
1.20622
-2.45379
1.62675
-2.5024
1.97222
-2.43836
2.24895
-2.27711
2.43047
-2.01724
2.50428
-1.65004
2.479
-1.20965
2.33595
-0.719716
2.07873
-0.192525
1.73777
0.329856
1.31583
0.829485
0.831872
1.30536
0.32408
1.72225
-0.201873
2.06128
-0.725158
2.31873
-1.20584
2.46444
-1.63834
2.49642
-2.00566
2.43431
-2.27541
2.2671
-2.45095
2.00125
-2.52428
1.65745
-2.47343
1.22816
-2.31632
0.733176
-2.06394
0.214464
-1.71374
-0.316345
-1.29757
-0.832219
1.10892
1.56129
0.602054
1.93418
0.0830352
2.22757
-0.439492
2.41527
-0.942223
2.4913
-1.39282
2.47353
-1.7943
2.35001
-2.12949
2.12434
-2.3647
1.81995
-2.49991
1.42943
-2.5228
0.963876
-2.41777
0.459862
-2.21217
-0.0729936
-1.91946
-0.608147
-1.53863
-1.1016
-1.09988
-1.54663
-0.61592
-1.92698
-0.0905132
-2.21112
0.433858
-2.40329
0.931704
-2.49692
1.39544
-2.4715
1.79092
-2.34458
2.10731
-2.12336
2.34876
-1.7991
2.48541
-1.39885
2.50764
-0.939631
2.42632
-0.425245
2.22857
0.103226
1.9282
0.6184
1.55713
1.11456
2.5038
2.3892
2.51257
2.1599
2.40113
1.83387
2.17712
1.4461
1.87201
0.996628
1.4865
0.501189
1.03614
-0.0102938
0.55579
-0.53581
0.0473602
-1.04766
-0.472878
-1.50102
-0.968312
-1.88795
-1.43292
-2.19074
-1.84472
-2.38632
-2.16352
-2.48867
-2.38679
-2.49263
-2.50546
-2.37859
-2.49942
-2.16378
-2.38736
-1.85499
-2.17735
-1.45356
-1.86178
-0.998553
-1.46998
-0.509766
-1.02137
0.009912
-0.519868
0.525529
-0.00309098
1.01858
0.506974
1.4817
1.00804
1.87424
1.4644
2.17809
1.85374
2.3958
2.17319
2.50262
2.39096
2.4961
1.96864
1.59552
2.24172
1.13998
2.42188
0.645683
2.49246
0.124491
2.45897
-0.400865
2.33861
-0.892627
2.11281
-1.34873
1.78436
-1.75462
1.37921
-2.07804
0.901616
-2.32123
0.381614
-2.47417
-0.137472
-2.50996
-0.651142
-2.43815
-1.14109
-2.26023
-1.57514
-1.96662
-1.95085
-1.58829
-2.2455
-1.14678
-2.42629
-0.646222
-2.5025
-0.123385
-2.47398
0.399056
-2.33169
0.915591
-2.1003
1.38647
-1.78523
1.78771
-1.37978
2.11846
-0.915644
2.35086
-0.412085
2.47642
0.121989
2.50812
0.644278
2.42798
1.13286
2.23568
1.58203
1.95484
-0.271432
0.263606
-0.791052
0.770041
-1.27951
1.23198
-1.71028
1.65435
-2.04666
2.00904
-2.29411
2.28144
-2.44977
2.46686
-2.4937
2.53106
-2.43982
2.46989
-2.29016
2.30635
-2.03128
2.03852
-1.68695
1.68388
-1.2712
1.27099
-0.783661
0.794969
-0.26201
0.274674
0.266026
-0.249546
0.790336
-0.766207
1.27049
-1.2475
1.68549
-1.65861
2.03775
-2.00437
2.29907
-2.27351
2.45633
-2.4396
2.51677
-2.5087
2.45936
-2.47139
2.28486
-2.31105
2.02
-2.05208
1.66345
-1.70647
1.23047
-1.27555
0.756004
-0.795838
0.243469
-0.287176
-1.9607
-2.25342
-1.59485
-2.45243
-1.15982
-2.52402
-0.686071
-2.47991
-0.182532
-2.3303
0.350738
-2.07305
0.871103
-1.73918
1.34854
-1.34347
1.76963
-0.881042
2.09815
-0.382557
2.32755
0.131231
2.47057
0.655534
2.50612
1.15119
2.43007
1.59276
2.25543
1.97442
1.97096
2.26001
1.59442
2.43328
1.16358
2.50504
0.682816
2.46119
0.171656
2.30715
-0.338059
2.0686
-0.845299
1.73837
-1.32611
1.32559
-1.74018
0.862389
-2.08253
0.353333
-2.33538
-0.178668
-2.47328
-0.691431
-2.50892
-1.17759
-2.4402
-1.61789
-2.25455
-1.97685
-2.37729
-2.47758
-2.161
-2.48427
-1.84468
-2.39811
-1.4429
-2.20121
-0.963743
-1.90958
-0.453651
-1.52944
0.058296
-1.06546
0.569691
-0.563198
1.05053
-0.0486094
1.48493
0.47283
1.87334
0.967931
2.18164
1.42194
2.39139
1.82987
2.50751
2.15138
2.50685
2.36898
2.38514
2.48875
2.16283
2.49344
1.83471
2.38968
1.41748
2.19871
0.951553
1.90843
0.445255
1.52815
-0.0807949
1.08762
-0.589908
0.590376
-1.07917
0.062457
-1.53028
-0.45592
-1.90607
-0.959614
-2.20429
-1.42662
-2.41241
-1.82153
-2.50429
-2.14325
-2.49143
-2.37522
-1.07561
-0.592258
-1.5159
-0.0791838
-1.88772
0.460007
-2.19355
0.978663
-2.41192
1.44131
-2.50946
1.83897
-2.49579
2.14247
-2.37393
2.34651
-2.14035
2.46768
-1.82516
2.4871
-1.43736
2.39782
-0.972724
2.21485
-0.465996
1.92717
0.0592099
1.54496
0.589619
1.10236
1.08166
0.603184
1.51715
0.0678183
1.89762
-0.461719
2.19348
-0.974594
2.39342
-1.44666
2.50137
-1.83959
2.49297
-2.15371
2.36973
-2.37936
2.15386
-2.49144
1.8386
-2.50075
1.43817
-2.40754
0.983741
-2.19877
0.477534
-1.89955
-0.0554939
-1.52427
-0.574103
-1.07121
1.31676
0.862724
1.73312
0.364306
2.081
-0.163077
2.33664
-0.68136
2.49466
-1.17855
2.52623
-1.62445
2.43182
-1.98257
2.24351
-2.25826
1.96377
-2.44261
1.60435
-2.51285
1.19123
-2.47931
0.718119
-2.33795
0.199366
-2.0793
-0.32363
-1.73571
-0.838884
-1.32534
-1.32227
-0.852127
-1.73512
-0.351227
-2.07551
0.160907
-2.32981
0.679534
-2.46925
1.16456
-2.50348
1.59495
-2.43354
1.96723
-2.24697
2.24912
-1.96783
2.43018
-1.6085
2.51644
-1.1667
2.48434
-0.677688
2.33501
-0.165734
2.09158
0.362419
1.75087
0.868668
1.33188
2.4418
2.49927
2.28031
2.45223
2.02846
2.31438
1.67405
2.06562
1.23513
1.70796
0.752223
1.27708
0.234431
0.787662
-0.293892
0.269874
-0.797908
-0.235077
-1.27574
-0.729139
-1.70439
-1.20434
-2.04648
-1.62875
-2.30176
-1.99602
-2.45854
-2.28338
-2.49793
-2.45424
-2.43801
-2.51499
-2.27999
-2.46672
-2.01338
-2.2971
-1.66506
-2.03068
-1.24841
-1.68192
-0.766456
-1.25116
-0.256602
-0.774233
0.26211
-0.272182
0.783792
0.25288
1.26762
0.765107
1.69063
1.24136
2.04682
1.67553
2.30337
2.02997
2.45327
2.28662
2.5091
2.45288
1.76239
2.10083
1.36698
2.34625
0.912844
2.48228
0.408642
2.5145
-0.113916
2.4265
-0.645585
2.22874
-1.15431
1.94828
-1.58954
1.57911
-1.94528
1.13559
-2.21696
0.650582
-2.38923
0.12938
-2.47762
-0.401071
-2.47647
-0.900702
-2.3573
-1.36547
-2.13089
-1.7753
-1.80687
-2.09779
-1.38655
-2.33572
-0.907791
-2.47699
-0.394244
-2.50063
0.146884
-2.42349
0.672976
-2.24702
1.15743
-1.96109
1.59663
-1.59239
1.95949
-1.15484
2.23361
-0.654264
2.42624
-0.133048
2.51187
0.385536
2.48162
0.895746
2.35039
1.36173
2.1081
1.76683
-0.0230199
-0.539632
0.497052
-1.03375
1.00911
-1.47427
1.46837
-1.86457
1.85474
-2.18916
2.16934
-2.40785
2.38493
-2.51537
2.49469
-2.50521
2.50712
-2.36855
2.40179
-2.14068
2.1839
-1.84267
1.87975
-1.46714
1.48767
-1.03285
1.02757
-0.548676
0.535199
-0.0173801
0.0150454
0.513457
-0.508561
1.01379
-0.997776
1.48118
-1.45001
1.88054
-1.84645
2.18986
-2.15546
2.40828
-2.37913
2.50946
-2.50296
2.49111
-2.50337
2.37603
-2.39743
2.15723
-2.1909
1.8432
-1.8799
1.46133
-1.4952
1.00856
-1.04989
0.501262
-0.545316
-0.0202096
-2.13125
-1.80325
-2.35099
-1.39807
-2.47351
-0.935209
-2.50153
-0.422657
-2.41802
0.100113
-2.23558
0.614252
-1.95424
1.11457
-1.56438
1.56161
-1.10384
1.93511
-0.607247
2.23227
-0.0889139
2.42287
0.414962
2.50138
0.893115
2.48131
1.35637
2.34771
1.77051
2.10908
2.09958
1.79246
2.33718
1.39507
2.46641
0.934358
2.48712
0.442845
2.4115
-0.0779489
2.22107
-0.60451
1.92115
-1.09624
1.54387
-1.54543
1.09413
-1.92922
0.593844
-2.21609
0.0826467
-2.41257
-0.434551
-2.50982
-0.939551
-2.48708
-1.39596
-2.36027
-1.79976
-2.1326
-2.44452
-2.26711
-2.51667
-1.99674
-2.4657
-1.63274
-2.31328
-1.20841
-2.06566
-0.740434
-1.7174
-0.224812
-1.29917
0.305417
-0.827197
0.822228
-0.307797
1.31047
0.217714
1.72464
0.72715
2.04444
1.21384
2.28311
1.63999
2.42774
1.98902
2.47167
2.26208
2.41696
2.4319
2.24456
2.4944
1.9693
2.46278
1.62257
2.31964
1.19829
2.06955
0.710792
1.73647
0.198258
1.31789
-0.330052
0.835582
-0.84888
0.328355
-1.3173
-0.197927
-1.73094
-0.719754
-2.07414
-1.19986
-2.31638
-1.63413
-2.46383
-2.00106
-2.51182
-2.26809
-2.44083
-0.834418
-1.30476
-0.316244
-1.72295
0.209306
-2.06993
0.715834
-2.3162
1.19983
-2.46807
1.62923
-2.51641
1.98702
-2.4431
2.27338
-2.26864
2.45408
-1.99964
2.51262
-1.63264
2.46297
-1.20058
2.29904
-0.721015
2.03428
-0.200342
1.69796
0.320876
1.2829
0.821866
0.807131
1.29815
0.313213
1.71412
-0.20098
2.05382
-0.719739
2.31655
-1.20264
2.47152
-1.6415
2.51197
-2.01292
2.45187
-2.28039
2.27805
-2.44882
2.00038
-2.51559
1.64635
-2.46378
1.21394
-2.31158
0.723401
-2.06534
0.212257
-1.7177
-0.313644
-1.29928
-0.830074
1.10637
1.55191
0.607892
1.92292
0.0934708
2.21982
-0.431846
2.41497
-0.943353
2.5001
-1.40283
2.49024
-1.80701
2.36942
-2.13681
2.13695
-2.36248
1.81617
-2.49054
1.40615
-2.51272
0.928387
-2.41227
0.42758
-2.21192
-0.0882855
-1.92134
-0.602105
-1.53961
-1.07655
-1.10014
-1.51169
-0.618438
-1.89272
-0.097577
-2.18356
0.423814
-2.38937
0.923917
-2.50069
1.39521
-2.48783
1.79939
-2.3609
2.1202
-2.12799
2.35909
-1.78973
2.48837
-1.38301
2.50356
-0.927771
2.4198
-0.42332
2.22436
0.0969664
1.92725
0.610487
1.55628
1.11014
2.49148
2.38502
2.49954
2.1671
2.39435
1.84881
2.17976
1.46002
1.8831
1.0013
1.50197
0.494391
1.04946
-0.0238253
0.559388
-0.548264
0.0356215
-1.05367
-0.499548
-1.50053
-1.00007
-1.8845
-1.45337
-2.18736
-1.84075
-2.38293
-2.13265
-2.48315
-2.33958
-2.4842
-2.4573
-2.37013
-2.45445
-2.16066
-2.34498
-1.861
-2.14781
-1.46743
-1.85683
-1.01387
-1.4877
-0.518906
-1.04607
0.0109056
-0.534269
0.534638
0.000281968
1.02976
0.522737
1.48949
1.02357
1.87716
1.46979
2.17841
1.84802
2.39611
2.1626
2.50266
2.38263
2.4929
1.95593
1.58304
2.23761
1.13503
2.43071
0.650251
2.51056
0.135417
2.47657
-0.389341
2.34611
-0.886182
2.10684
-1.35171
1.76931
-1.76926
1.36326
-2.10197
0.891026
-2.34558
0.377659
-2.48599
-0.137125
-2.49827
-0.648588
-2.40225
-1.13578
-2.21283
-1.56516
-1.92158
-1.93643
-1.54519
-2.23119
-1.10089
-2.41936
-0.608256
-2.50804
-0.109486
-2.49078
0.386809
-2.35207
0.890482
-2.11463
1.36691
-1.78786
1.78498
-1.37203
2.13013
-0.903791
2.36505
-0.402325
2.48221
0.127589
2.50284
0.647572
2.41718
1.13592
2.22717
1.58395
1.95235
-0.281897
0.251137
-0.792528
0.765121
-1.27191
1.23983
-1.69947
1.67166
-2.03962
2.02598
-2.29475
2.28853
-2.45824
2.46119
-2.50768
2.51741
-2.45556
2.45629