# vtk DataFile Version 3.1
vtk output
ASCII
DATASET POLYDATA
POINTS 4260 FLOAT
2.83277e-16          -1    -3.14159
-0.104528 -0.994522  -3.14159
 0.104528 -0.994522  -3.14159
-0.207912 -0.978148  -3.14159
 0.207912 -0.978148  -3.14159
-0.309017 -0.951057  -3.14159
 0.309017 -0.951057  -3.14159
-0.406737 -0.913545  -3.14159
 0.406737 -0.913545  -3.14159
     -0.5 -0.866025  -3.14159
      0.5 -0.866025  -3.14159
-0.587785 -0.809017  -3.14159
 0.587785 -0.809017  -3.14159
-0.669131 -0.743145  -3.14159
 0.669131 -0.743145  -3.14159
-0.743145 -0.669131  -3.14159
 0.743145 -0.669131  -3.14159
-0.809017 -0.587785  -3.14159
 0.809017 -0.587785  -3.14159
-0.866025      -0.5  -3.14159
0.866025     -0.5 -3.14159
-0.913545 -0.406737  -3.14159
 0.913545 -0.406737  -3.14159
-0.951057 -0.309017  -3.14159
 0.951057 -0.309017  -3.14159
-0.978148 -0.207912  -3.14159
 0.978148 -0.207912  -3.14159
-0.994522 -0.104528  -3.14159
 0.994522 -0.104528  -3.14159
          -1 -5.66554e-16     -3.14159
       1        0 -3.14159
-0.994522  0.104528  -3.14159
0.994522 0.104528 -3.14159
-0.978148  0.207912  -3.14159
0.978148 0.207912 -3.14159
-0.951057  0.309017  -3.14159
0.951057 0.309017 -3.14159
-0.913545  0.406737  -3.14159
0.913545 0.406737 -3.14159
-0.866025       0.5  -3.14159
0.866025      0.5 -3.14159
-0.809017  0.587785  -3.14159
0.809017 0.587785 -3.14159
-0.743145  0.669131  -3.14159
0.743145 0.669131 -3.14159
-0.669131  0.743145  -3.14159
0.669131 0.743145 -3.14159
-0.587785  0.809017  -3.14159
0.587785 0.809017 -3.14159
    -0.5 0.866025 -3.14159
     0.5 0.866025 -3.14159
-0.406737  0.913545  -3.14159
0.406737 0.913545 -3.14159
-0.309017  0.951057  -3.14159
0.309017 0.951057 -3.14159
-0.207912  0.978148  -3.14159
0.207912 0.978148 -3.14159
-0.104528  0.994522  -3.14159
0.104528 0.994522 -3.14159
-1.83697e-16            1     -3.14159
-0.052336  -0.99863   -3.0509
0.052336 -0.99863  -3.0509
-0.156434 -0.987688   -3.0509
 0.156434 -0.987688   -3.0509
-0.258819 -0.965926   -3.0509
 0.258819 -0.965926   -3.0509
-0.358368  -0.93358   -3.0509
0.358368 -0.93358  -3.0509
 -0.45399 -0.891007   -3.0509
  0.45399 -0.891007   -3.0509
-0.544639 -0.838671   -3.0509
 0.544639 -0.838671   -3.0509
 -0.62932 -0.777146   -3.0509
  0.62932 -0.777146   -3.0509
-0.707107 -0.707107   -3.0509
 0.707107 -0.707107   -3.0509
-0.777146  -0.62932   -3.0509
0.777146 -0.62932  -3.0509
-0.838671 -0.544639   -3.0509
 0.838671 -0.544639   -3.0509
-0.891007  -0.45399   -3.0509
0.891007 -0.45399  -3.0509
 -0.93358 -0.358368   -3.0509
  0.93358 -0.358368   -3.0509
-0.965926 -0.258819   -3.0509
 0.965926 -0.258819   -3.0509
-0.987688 -0.156434   -3.0509
 0.987688 -0.156434   -3.0509
 -0.99863 -0.052336   -3.0509
  0.99863 -0.052336   -3.0509
-0.99863 0.052336  -3.0509
 0.99863 0.052336  -3.0509
-0.987688  0.156434   -3.0509
0.987688 0.156434  -3.0509
-0.965926  0.258819   -3.0509
0.965926 0.258819  -3.0509
-0.93358 0.358368  -3.0509
 0.93358 0.358368  -3.0509
-0.891007   0.45399   -3.0509
0.891007  0.45399  -3.0509
-0.838671  0.544639   -3.0509
0.838671 0.544639  -3.0509
-0.777146   0.62932   -3.0509
0.777146  0.62932  -3.0509
-0.707107  0.707107   -3.0509
0.707107 0.707107  -3.0509
-0.62932 0.777146  -3.0509
 0.62932 0.777146  -3.0509
-0.544639  0.838671   -3.0509
0.544639 0.838671  -3.0509
-0.45399 0.891007  -3.0509
 0.45399 0.891007  -3.0509
-0.358368   0.93358   -3.0509
0.358368  0.93358  -3.0509
-0.258819  0.965926   -3.0509
0.258819 0.965926  -3.0509
-0.156434  0.987688   -3.0509
0.156434 0.987688  -3.0509
-0.052336   0.99863   -3.0509
0.052336  0.99863  -3.0509
6.12323e-17          -1    -2.96021
-0.104528 -0.994522  -2.96021
 0.104528 -0.994522  -2.96021
-0.207912 -0.978148  -2.96021
 0.207912 -0.978148  -2.96021
-0.309017 -0.951057  -2.96021
 0.309017 -0.951057  -2.96021
-0.406737 -0.913545  -2.96021
 0.406737 -0.913545  -2.96021
     -0.5 -0.866025  -2.96021
      0.5 -0.866025  -2.96021
-0.587785 -0.809017  -2.96021
 0.587785 -0.809017  -2.96021
-0.669131 -0.743145  -2.96021
 0.669131 -0.743145  -2.96021
-0.743145 -0.669131  -2.96021
 0.743145 -0.669131  -2.96021
-0.809017 -0.587785  -2.96021
 0.809017 -0.587785  -2.96021
-0.866025      -0.5  -2.96021
0.866025     -0.5 -2.96021
-0.913545 -0.406737  -2.96021
 0.913545 -0.406737  -2.96021
-0.951057 -0.309017  -2.96021
 0.951057 -0.309017  -2.96021
-0.978148 -0.207912  -2.96021
 0.978148 -0.207912  -2.96021
-0.994522 -0.104528  -2.96021
 0.994522 -0.104528  -2.96021
          -1 -5.66554e-16     -2.96021
          1 2.77556e-17    -2.96021
-0.994522  0.104528  -2.96021
0.994522 0.104528 -2.96021
-0.978148  0.207912  -2.96021
0.978148 0.207912 -2.96021
-0.951057  0.309017  -2.96021
0.951057 0.309017 -2.96021
-0.913545  0.406737  -2.96021
0.913545 0.406737 -2.96021
-0.866025       0.5  -2.96021
0.866025      0.5 -2.96021
-0.809017  0.587785  -2.96021
0.809017 0.587785 -2.96021
-0.743145  0.669131  -2.96021
0.743145 0.669131 -2.96021
-0.669131  0.743145  -2.96021
0.669131 0.743145 -2.96021
-0.587785  0.809017  -2.96021
0.587785 0.809017 -2.96021
    -0.5 0.866025 -2.96021
     0.5 0.866025 -2.96021
-0.406737  0.913545  -2.96021
0.406737 0.913545 -2.96021
-0.309017  0.951057  -2.96021
0.309017 0.951057 -2.96021
-0.207912  0.978148  -2.96021
0.207912 0.978148 -2.96021
-0.104528  0.994522  -2.96021
0.104528 0.994522 -2.96021
-1.83697e-16            1     -2.96021
-0.052336  -0.99863  -2.86952
0.052336 -0.99863 -2.86952
-0.156434 -0.987688  -2.86952
 0.156434 -0.987688  -2.86952
-0.258819 -0.965926  -2.86952
 0.258819 -0.965926  -2.86952
-0.358368  -0.93358  -2.86952
0.358368 -0.93358 -2.86952
 -0.45399 -0.891007  -2.86952
  0.45399 -0.891007  -2.86952
-0.544639 -0.838671  -2.86952
 0.544639 -0.838671  -2.86952
 -0.62932 -0.777146  -2.86952
  0.62932 -0.777146  -2.86952
-0.707107 -0.707107  -2.86952
 0.707107 -0.707107  -2.86952
-0.777146  -0.62932  -2.86952
0.777146 -0.62932 -2.86952
-0.838671 -0.544639  -2.86952
 0.838671 -0.544639  -2.86952
-0.891007  -0.45399  -2.86952
0.891007 -0.45399 -2.86952
 -0.93358 -0.358368  -2.86952
  0.93358 -0.358368  -2.86952
-0.965926 -0.258819  -2.86952
 0.965926 -0.258819  -2.86952
-0.987688 -0.156434  -2.86952
 0.987688 -0.156434  -2.86952
 -0.99863 -0.052336  -2.86952
  0.99863 -0.052336  -2.86952
-0.99863 0.052336 -2.86952
 0.99863 0.052336 -2.86952
-0.987688  0.156434  -2.86952
0.987688 0.156434 -2.86952
-0.965926  0.258819  -2.86952
0.965926 0.258819 -2.86952
-0.93358 0.358368 -2.86952
 0.93358 0.358368 -2.86952
-0.891007   0.45399  -2.86952
0.891007  0.45399 -2.86952
-0.838671  0.544639  -2.86952
0.838671 0.544639 -2.86952
-0.777146   0.62932  -2.86952
0.777146  0.62932 -2.86952
-0.707107  0.707107  -2.86952
0.707107 0.707107 -2.86952
-0.62932 0.777146 -2.86952
 0.62932 0.777146 -2.86952
-0.544639  0.838671  -2.86952
0.544639 0.838671 -2.86952
-0.45399 0.891007 -2.86952
 0.45399 0.891007 -2.86952
-0.358368   0.93358  -2.86952
0.358368  0.93358 -2.86952
-0.258819  0.965926  -2.86952
0.258819 0.965926 -2.86952
-0.156434  0.987688  -2.86952
0.156434 0.987688 -2.86952
-0.052336   0.99863  -2.86952
0.052336  0.99863 -2.86952
6.12323e-17          -1    -2.77883
-0.104528 -0.994522  -2.77883
 0.104528 -0.994522  -2.77883
-0.207912 -0.978148  -2.77883
 0.207912 -0.978148  -2.77883
-0.309017 -0.951057  -2.77883
 0.309017 -0.951057  -2.77883
-0.406737 -0.913545  -2.77883
 0.406737 -0.913545  -2.77883
     -0.5 -0.866025  -2.77883
      0.5 -0.866025  -2.77883
-0.587785 -0.809017  -2.77883
 0.587785 -0.809017  -2.77883
-0.669131 -0.743145  -2.77883
 0.669131 -0.743145  -2.77883
-0.743145 -0.669131  -2.77883
 0.743145 -0.669131  -2.77883
-0.809017 -0.587785  -2.77883
 0.809017 -0.587785  -2.77883
-0.866025      -0.5  -2.77883
0.866025     -0.5 -2.77883
-0.913545 -0.406737  -2.77883
 0.913545 -0.406737  -2.77883
-0.951057 -0.309017  -2.77883
 0.951057 -0.309017  -2.77883
-0.978148 -0.207912  -2.77883
 0.978148 -0.207912  -2.77883
-0.994522 -0.104528  -2.77883
 0.994522 -0.104528  -2.77883
          -1 -1.22465e-16     -2.77883
          1 5.55112e-17    -2.77883
-0.994522  0.104528  -2.77883
0.994522 0.104528 -2.77883
-0.978148  0.207912  -2.77883
0.978148 0.207912 -2.77883
-0.951057  0.309017  -2.77883
0.951057 0.309017 -2.77883
-0.913545  0.406737  -2.77883
0.913545 0.406737 -2.77883
-0.866025       0.5  -2.77883
0.866025      0.5 -2.77883
-0.809017  0.587785  -2.77883
0.809017 0.587785 -2.77883
-0.743145  0.669131  -2.77883
0.743145 0.669131 -2.77883
-0.669131  0.743145  -2.77883
0.669131 0.743145 -2.77883
-0.587785  0.809017  -2.77883
0.587785 0.809017 -2.77883
    -0.5 0.866025 -2.77883
     0.5 0.866025 -2.77883
-0.406737  0.913545  -2.77883
0.406737 0.913545 -2.77883
-0.309017  0.951057  -2.77883
0.309017 0.951057 -2.77883
-0.207912  0.978148  -2.77883
0.207912 0.978148 -2.77883
-0.104528  0.994522  -2.77883
0.104528 0.994522 -2.77883
-1.83697e-16            1     -2.77883
-0.052336  -0.99863  -2.68814
0.052336 -0.99863 -2.68814
-0.156434 -0.987688  -2.68814
 0.156434 -0.987688  -2.68814
-0.258819 -0.965926  -2.68814
 0.258819 -0.965926  -2.68814
-0.358368  -0.93358  -2.68814
0.358368 -0.93358 -2.68814
 -0.45399 -0.891007  -2.68814
  0.45399 -0.891007  -2.68814
-0.544639 -0.838671  -2.68814
 0.544639 -0.838671  -2.68814
 -0.62932 -0.777146  -2.68814
  0.62932 -0.777146  -2.68814
-0.707107 -0.707107  -2.68814
 0.707107 -0.707107  -2.68814
-0.777146  -0.62932  -2.68814
0.777146 -0.62932 -2.68814
-0.838671 -0.544639  -2.68814
 0.838671 -0.544639  -2.68814
-0.891007  -0.45399  -2.68814
0.891007 -0.45399 -2.68814
 -0.93358 -0.358368  -2.68814
  0.93358 -0.358368  -2.68814
-0.965926 -0.258819  -2.68814
 0.965926 -0.258819  -2.68814
-0.987688 -0.156434  -2.68814
 0.987688 -0.156434  -2.68814
 -0.99863 -0.052336  -2.68814
  0.99863 -0.052336  -2.68814
-0.99863 0.052336 -2.68814
 0.99863 0.052336 -2.68814
-0.987688  0.156434  -2.68814
0.987688 0.156434 -2.68814
-0.965926  0.258819  -2.68814
0.965926 0.258819 -2.68814
-0.93358 0.358368 -2.68814
 0.93358 0.358368 -2.68814
[...]
POINT_DATA 4260
SCALARS Field double
LOOKUP_TABLE default
1.35816
0.890174
1.77359
0.385004
2.10901
-0.135235
2.34731
-0.644457
2.48549
-1.13091
2.5129
-1.57431
2.42912
-1.9478
2.24478
-2.23923
1.96015
-2.43262
1.58555
-2.51228
1.1442
-2.48267
0.650383
-2.34611
0.126954
-2.10348
-0.394966
-1.77302
-0.899324
-1.36857
-1.36645
-0.901162
-1.7708
-0.397524
-2.10197
0.122342
-2.34546
0.643573
-2.48175
1.13693
-2.50949
1.5803
-2.42748
1.958
-2.23321
2.24393
-1.94336
2.42573
-1.57259
2.50396
-1.13006
2.47177
-0.640215
2.33391
-0.123775
2.10282
0.403766
1.77913
0.911465
1.37453
2.44992
2.50931
2.28479
2.45572
2.03002
2.29588
1.68898
2.03052
1.27359
1.67284
0.804183
1.24773
0.292025
0.767771
-0.239048
0.251754
-0.756655
-0.27252
-1.24235
-0.788818
-1.67275
-1.27356
-2.02283
-1.69602
-2.28548
-2.04271
-2.45006
-2.2999
-2.50451
-2.45176
-2.45464
-2.50052
-2.30228
-2.44555
-2.04654
-2.28095
-1.70307
-2.01777
-1.2836
-1.66603
-0.799156
-1.23365
-0.279816
-0.747345
0.248478
-0.231269
0.765459
0.297475
1.24072
0.809426
1.65679
1.2829
2.00629
1.7056
2.27032
2.05279
2.43842
2.30727
2.50717
2.46324
1.74618
2.07633
1.34335
2.31662
0.875827
2.45969
0.363246
2.50467
-0.162349
2.43884
-0.681344
2.26181
-1.17066
1.98579
-1.60329
1.61662
-1.96905
1.17354
-2.25363
0.684696
-2.43622
0.165802
-2.5125
-0.35959
-2.47792
-0.862795
-2.32742
-1.33016
-2.07658
-1.74242
-1.73991
-2.07692
-1.32622
-2.3267
-0.858627
-2.47883
-0.355371
-2.51723
0.170975
-2.44417
0.691436
-2.26128
1.18092
-1.97245
1.62254
-1.60161
1.98893
-1.16793
2.26357
-0.684554
2.44309
-0.176727
2.51494
0.338432
2.47568
0.847911
2.33276
1.3225
2.0842
1.73958
-0.0529658
-0.56761
0.460857
-1.06433
0.961594
-1.51459
1.42232
-1.90235
1.82265
-2.20782
2.14869
-2.40891
2.37646
-2.50435
2.49564
-2.49339
2.508
-2.37138
2.40731
-2.14951
2.19981
-1.83571
1.90175
-1.43444
1.51973
-0.969527
1.07138
-0.464161
0.582108
0.0637603
0.0646318
0.58344
-0.4599
1.07264
-0.963361
1.51974
-1.42978
1.90118
-1.83517
2.20003
-2.15231
2.40849
-2.37331
2.50854
-2.48978
2.49355
-2.49405
2.37156
-2.39611
2.1434
-2.20007
1.82038
-1.90573
1.42432
-1.52952
0.965086
-1.08506
0.460189
-0.585686
-0.0624501
-2.13643
-1.81905
-2.36028
-1.42678
-2.48713
-0.973213
-2.50941
-0.470176
-2.41548
0.0531594
-2.21379
0.573454
-1.91463
1.07332
-1.52687
1.52337
-1.07638
1.90432
-0.583868
2.20545
-0.0620592
2.40626
0.461999
2.49912
0.965267
2.48784
1.43122
2.36759
1.83075
2.14478
2.14456
1.83402
2.36701
1.43909
2.48444
0.975797
2.49308
0.470933
2.39969
-0.0578737
2.20009
-0.583566
1.89988
-1.07505
1.51786
-1.5188
1.06503
-1.89763
0.56263
-2.19135
0.0418356
-2.39513
-0.480093
-2.49825
-0.981791
-2.48781
-1.43604
-2.36996
-1.83076
-2.14943
-2.4222
-2.24522
-2.49925
-1.97604
-2.4655
-1.61677
-2.32763
-1.18627
-2.08946
-0.702188
-1.75401
-0.179393
-1.34236
0.350167
-0.871572
0.860006
-0.356412
1.33408
0.171889
1.74659
0.688696
2.08072
1.17644
2.32961
1.60752
2.47488
1.96651
2.50766
2.24717
2.43276
2.43142
2.2482
2.51021
1.96366
2.48287
1.60027
2.34046
1.16717
2.08934
0.680493
1.74924
0.166117
1.33164
-0.360837
0.858032
-0.876913
0.355589
-1.3502
-0.162858
-1.76432
-0.676748
-2.10118
-1.15899
-2.33987
-1.59563
-2.47785
-1.96585
-2.51079
-2.24597
-2.43038
-0.79041
-1.26118
-0.282576
-1.68263
0.236144
-2.03568
0.74487
-2.29757
1.2295
-2.46239
1.6614
-2.52037
2.01841
-2.46082
2.28961
-2.29258
2.45617
-2.02335
2.51152
-1.66128
2.46214
-1.23243
2.3045
-0.756408
2.04373
-0.246273
1.69653
0.272347
1.27104
0.781189
0.786512
1.26567
0.273557
1.6955
-0.250231
2.0484
-0.763248
2.31175
-1.23852
2.46626
-1.66419
2.50818
-2.02304
2.44594
-2.29087
2.27833
-2.45982
2.01396
-2.52131
1.66897
-2.46561
1.24849
-2.30291
0.769249
-2.04251
0.257966
-1.68931
-0.269056
-1.26454
-0.786556
1.14018
1.57563
0.652674
1.94138
0.139112
2.23008
-0.385967
2.42287
-0.898789
2.50899
-1.36931
2.48903
-1.78187
2.35546
-2.11559
2.11343
-2.34858
1.78245
-2.47885
1.3729
-2.50306
0.90286
-2.417
0.398731
-2.23275
-0.125893
-1.95603
-0.649684
-1.58882
-1.14149
-1.15063
-1.58364
-0.658902
-1.9557
-0.130865
-2.23497
0.399427
-2.41831
0.90611
-2.50108
1.37261
-2.47333
1.77358
-2.34082
2.09567
-2.10707
2.3341
-1.77351
2.47217
-1.36172
2.50292
-0.892679
2.42866
-0.382013
2.24349
0.141191
1.95585
0.654867
1.58615
1.14553
2.48835
2.38839
2.48683
2.18277
2.37822
1.8794
2.16586
1.49642
1.86391
1.04281
1.47642
0.53956
1.01787
0.0167777
0.515783
-0.507536
-0.0117425
-1.00846
-0.539348
-1.45829
-1.0356
-1.84675
-1.48634
-2.15895
-1.87506
-2.37623
-2.17943
-2.4951
-2.39187
-2.50683
-2.50132
-2.4016
-2.49381
-2.18989
-2.37623
-1.88159
-2.15685
-1.48673
-1.84108
-1.03237
-1.44996
-0.538774
-0.999264
-0.0199722
-0.498381
0.496875
0.0263898
0.992164
0.550538
1.45139
1.055
1.84635
1.50826
2.15838
1.88909
2.3788
2.18978
2.4913
2.39381
2.49354
1.91734
1.54324
2.20887
1.10206
2.41081
0.618951
2.50589
0.106521
2.48874
-0.415952
2.3648
-0.920089
2.13187
-1.38964
1.80189
-1.80208
1.39794
-2.12903
0.932818
-2.36078
0.428135
-2.48874
-0.0890601
-2.50301
-0.605753
-2.4118
-1.10078
-2.21994
-1.54641
-1.92673
-1.92848
-1.54899
-2.22702
-1.1034
-2.42067
-0.604395
-2.5079
-0.0829963
-2.48597
0.436196
-2.352
0.939242
-2.12069
1.40119
-1.80161
1.80362
-1.40085
2.13534
-0.940939
2.37208
-0.440229
2.49911
0.0853609
2.51648
0.604476
2.41875
1.09419
2.21296
1.54016
1.91781
-0.325401
0.198371
-0.82887
0.713616
-1.29774
1.19892
-1.71365
1.63863
-2.05287
2.0043
-2.3078
2.27802
-2.46746
2.4526
-2.51562
2.51405
-2.45369
2.46303
-2.28316
2.31139
-2.00495
2.06048
-1.64012
1.72111
-1.20804
1.31157
-0.721436
0.83947
-0.206538
0.324516
0.315842
-0.203428
0.83095
-0.725363
1.30859
-1.21468
1.72468
-1.64216
2.06661
-1.99718
2.31424
-2.2664
2.45926
-2.4345
2.50507
-2.50233
2.44325
-2.46527
2.27294
-2.31642
2.00488
-2.06767
1.6426
-1.72924
1.20257
-1.31074
0.714237
-0.838435
0.195276
-0.331792
-1.99697
-2.26518
-1.64367
-2.43872
-1.21221
-2.50344
-0.726807
-2.46277
-0.208171
-2.31886
0.325066
-2.07025
0.839193
-1.73287
1.31013
-1.3204
1.72412
-0.842658
2.05913
-0.327332
2.30514
0.200313
2.46013
0.721789
2.50955
1.20679
2.44848
1.63445
2.28188
1.99527
2.00774
2.26853
1.63961
2.44101
1.2034
2.51011
0.71512
2.46478
0.198808
2.30685
-0.317603
2.05273
-0.821841
1.70967
-1.29457
1.29245
-1.71006
0.824153
-2.0559
0.315818
-2.31373
-0.212514
-2.46416
-0.729539
-2.50797
-1.21616
-2.44451
-1.64951
-2.27168
-2.0037
-2.34955
-2.47889
-2.11681
-2.50456
-1.7968
-2.42166
-1.40243
-2.22473
-0.942076
-1.92901
-0.441112
-1.54909
0.0783885
-1.09886
0.600969
-0.607646
1.09732
-0.0959634
1.54429
0.42327
1.92783
0.924271
2.22306
1.38814
2.41568
1.80019
2.50521
2.13191
2.48333
2.36544
2.35185
2.49477
2.12339
2.50823
1.79986
2.40943
1.3931
2.21293
0.927863
1.92213
0.419815
1.54913
-0.107468
1.11328
-0.623448
0.623585
-1.11358
0.101463
-1.55942
-0.421947
-1.93541
-0.92802
-2.22996
-1.39276
-2.42794
-1.79085
-2.51173
-2.11484
-2.48481
-2.35195
-1.02573
-0.529497
-1.48404
-0.0168063
-1.87615
0.499829
-2.18827
0.994449
-2.40285
1.4464
-2.50334
1.84296
-2.49454
2.15931
-2.37976
2.37961
-2.16034
2.49997
-1.85303
2.50758
-1.46815
2.40058
-1.01275
2.19065
-0.511576
1.88169
0.0137834
1.48836
0.544077
1.03629
1.04576
0.53886
1.4956
0.0157695
1.88093
-0.504606
2.18065
-1.00622
2.38543
-1.46661
2.49409
-1.85714
2.49372
-2.16689
2.38234
-2.38455
2.16913
-2.49566
1.8566
-2.50235
1.46136
-2.40305
1.00946
-2.19177
0.513894
-1.88195
-0.00551024
-1.48865
-0.523234
-1.0256
1.37481
0.911741
1.77826
0.401115
2.10131
-0.132323
2.33258
-0.655278
2.4708
-1.14864
2.50311
-1.58907
2.42551
-1.95255
2.24624
-2.23342
1.96518
-2.42154
1.59315
-2.50323
1.15343
-2.48063
0.659549
-2.35133
0.133805
-2.11218
-0.392094
-1.7799
-0.900391
-1.36965
-1.36965
-0.895566
-1.77365
-0.387616
-2.1026
0.132208
-2.34315
0.649082
-2.47676
1.13571
-2.50261
1.57285
-2.42003
1.94727
-2.22723
2.23381
-1.94127
2.41936
-1.57615
2.50282
-1.13906
2.47574
-0.65199
2.34181
-0.134213
2.11286
0.398317
1.78891
0.912542
1.38121
2.46497
2.51044
2.30707
2.44391
2.04854
2.27827
1.69465
2.01557
1.26438
1.66555
0.785918
1.24814
0.274659
0.772869
-0.24709
0.258538
-0.752673
-0.265387
-1.23003
-0.781619
-1.65953
-1.26707
-2.0158
-1.6921
-2.28799
-2.04317
-2.4604
-2.3049
-2.51699
-2.45922
-2.4625
-2.50719
-2.30107
-2.44889
-2.03642
-2.28029
-1.68882
-2.01406
-1.2721
-1.66085
-0.795857
-1.22842
-0.28605
-0.743384
0.235781
-0.230014
0.751784
0.294711
1.23113
0.802353
1.65397
1.27306
2.01024
1.69613
2.27916
2.04709
2.44933
2.30743
2.51705
2.46921
1.7417
2.08565
1.32792
2.33479
0.858058
2.4768
0.352002
2.51166
-0.163069
2.43259
-0.673807
2.2465
-1.16063
1.97013
-1.59564
1.60891
-1.96523
1.17744
-2.25234
0.697657
-2.43599
0.180632
-2.51355
-0.350977
-2.48167
-0.865248
-2.33458
-1.34274
-2.08571
-1.75873
-1.74803
-2.08845
-1.33081
-2.32741
-0.859287
-2.46849
-0.353753
-2.50141
0.172664
-2.43095
0.69192
-2.25665
1.18019
-1.97738
1.62107
-1.61239
1.98686
-1.17904
2.26076
-0.691826
2.43973
-0.17884
2.51194
0.340515
2.47434
0.852437
2.33392
1.32792
2.08775
1.74463
-0.0642752
-0.586491
0.462222
-1.08105
0.973443
-1.5205
1.43699
-1.89501
1.83181
-2.19211
2.14791
-2.39342
2.36725
-2.49593
2.48411
-2.49362
2.50127
-2.37713
2.40965
-2.15648
2.21034
-1.84175
1.9148
-1.44008
1.52777
-0.976013
1.06927
-0.471252
0.570219
0.0580661
0.0488606
0.581105
-0.471423
1.0736
-0.965028
1.52163
-1.42164
1.90106
-1.82243
2.19653
-2.14166
2.40268
-2.3688
2.50288
-2.49116
2.49026
-2.49817
2.3715
-2.39996
2.14624
-2.20277
1.82524
-1.90824
1.4301
-1.53285
0.970368
-1.08883
0.463425
-0.588256
-0.0622645
-2.1573
-1.83579
-2.37513
-1.43233
-2.48816
-0.966813
-2.49579
-0.456883
-2.39402
0.0657269
-2.19493
0.57917
-1.90642
1.07039
-1.5308
1.51486
-1.08776
1.89623
-0.596022
2.2033
-0.0706971
2.41178
0.457162
2.50916
0.962327
2.49616
1.42902
2.36876
1.8301
2.13768
2.1469
1.82248
2.37208
1.42924
2.48954
0.972047
2.49461
0.473621
2.39579
-0.0517299
2.19205
-0.577359
1.89133
-1.07014
1.51254
-1.5145
1.06491
-1.89318
0.567683
-2.18779
0.0506524
-2.39502
-0.469648
-2.50355
-0.972396
-2.49773
-1.43069
-2.38085
-1.83174
-2.15678
-2.44169
-2.25637
-2.51771
-1.97288
-2.47485
-1.6002
-2.32464
-1.16396
-2.07679
-0.684665
-1.73863
-0.174224
-1.33204
0.342371
-0.87105
0.845159
-0.364955
1.3203
0.160015
1.73914
0.680872
2.07984
1.17727
2.33228
1.61615
2.47837
1.97744
2.51172
2.25405
2.43874
2.43097
2.25648
2.50362
1.97206
2.47411
1.6051
2.33325
1.16603
2.08532
0.67422
1.74845
0.158322
1.33401
-0.366188
0.863975
-0.877654
0.364898
-1.34641
-0.152478
-1.75732
-0.669576
-2.09244
-1.15902
-2.33113
-1.60371
-2.47161
-1.9787
-2.51001
-2.25792
-2.4367
-0.795135
-1.27541
-0.274879
-1.69912
0.253219
-2.04629
0.763438
-2.29715
1.24065
-2.45137
1.65991
-2.50479
2.0057
-2.44938
2.27282
-2.2918
2.44386
-2.03366
2.50856
-1.67665
2.4676
-1.24391
2.31353
-0.757621
2.05181
-0.237043
1.70246
0.286481
1.27663
0.792887
0.793611
1.27011
0.28154
1.69221
-0.244254
2.04008
-0.761805
2.30187
-1.24137
2.4576
-1.66836
2.50285
-2.02523
2.44575
-2.28991
2.28412
-2.45701
2.02436
-2.51863
1.67995
-2.46372
1.25506
-2.3011
0.76843
-2.04029
0.250811
-1.68794
-0.278178
-1.26649
-0.793052
1.14366
1.5887
0.645629
1.95826
0.125978
2.24284
-0.397472
2.42508
-0.901775
2.49893
-1.3619
2.47095
-1.76872
2.33776
-2.10533
2.1043
-2.34835
1.78542
-2.48959
1.38511
-2.51874
0.917327
-2.42853
0.409105
-2.23378
-0.121576
-1.94657
-0.648932
-1.57439
-1.14055
-1.13825
-1.58099
-0.653085
-1.95283
-0.132241
-2.23415
0.392848
-2.41971
0.896989
-2.50222
1.36339
-2.47145
1.76661
-2.33583
2.09312
-2.10213
2.33692
-1.77261
2.47899
-1.36625
2.51027
-0.900149
2.43312
-0.388125
2.24405
0.13904
1.95441
0.655837
1.58553
1.14668
2.5063
2.39912
2.50351
2.18165
2.38557
1.86836
2.15998
1.483
1.84672
1.03556
1.45488
0.542597
1.00106
0.0270254
0.510829
-0.498067
-0.00321452
-1.00698
-0.522153
-1.46626
-1.01832
-1.85916
-1.47644
-2.16823
-1.87488
-2.37744
-2.18575
-2.48858
-2.39919
-2.4969
-2.50611
-2.39294
-2.49634
-2.18492
-2.37864
-1.88039
-2.15987
-1.48854
-1.84255
-1.03675
-1.44685
-0.545244
-0.991247
-0.0271355
-0.489495
0.49126
0.029955
0.989859
0.545072
1.45242
1.04233
1.84925
1.49468
2.16183
1.88107
2.38294
2.1898
2.49716
2.39961
2.50083
1.93746
1.55869
2.2233
1.10497
2.41242
0.607756
2.49507
0.0861737
2.47316
-0.43673
2.3543
-0.932676
2.13206
-1.38907
1.81089
-1.78913
1.40846
-2.10994
0.937722
-2.34439
0.42518
-2.48219
-0.0967533
-2.50809
-0.613037
-2.42444
-1.10438
-2.23348
-1.54629
-1.93641
-1.92625
-1.55452
-2.22372
-1.10755
-2.41619
-0.60921
-2.5023
-0.0871513
-2.48085
0.436373
-2.35004
0.945837
-2.1237
1.41156
-1.80886
1.81126
-1.40939
2.13431
-0.947655
2.36156
-0.443531
2.48437
0.0855241
2.50525
0.607883
2.41616
1.101
2.21887
1.54995
1.92802
-0.313486
0.216886
-0.830448
0.727853
-1.312
1.20074
-1.73327
1.62778
-2.06839
1.98836
-2.31243
2.26705
-2.45966
2.45253
-2.49915
2.52342
-2.4357
2.47524
-2.27136
2.31973
-2.00426
2.0621
-1.65047
1.71722
-1.22436
1.30492
-0.736595
0.832086
-0.215524
0.317572
0.313078
-0.208361
0.830381
-0.72592
1.30603
-1.20921
1.7196
-1.6318
2.06249
-1.98624
2.31519
-2.26004
2.46593
-2.43546
2.51331
-2.50934
2.44705
-2.4744
2.2692
-2.32395
1.99588
-2.07197
1.63423
-1.73035
1.20003
-1.30883
0.718586
-0.833252
0.203521
-0.323797
-1.99048
-2.27189
-1.62921
-2.45541
-1.19996
-2.52065
-0.724928
-2.47092
-0.217289
-2.31369
0.311669
-2.05441
0.830394
-1.71362
1.31094
-1.30574
1.7332
-0.838034
2.07101
-0.333996
2.31442
0.185387
2.46416
0.704783
2.50817
1.19453
2.44245
1.63111
2.27225
2.00011
1.99667
2.2764
1.63093
2.44576
1.20138
2.50877
0.721572
2.4593
0.211158
2.30211
-0.305224
2.05239
-0.814942
1.71332
-1.29488
1.29657
-1.71512
0.825576
-2.0617
0.314488
-2.31797
-0.213698
-2.46714
-0.72771
-2.51092
-1.21125
-2.44729
-1.64423
-2.27251
-2.00105
-2.36092
-2.47742
-2.13571
-2.49383
-1.81206
-2.41074
-1.40434
-2.22133
-0.928595
-1.93436
-0.418759
-1.55817
0.0988785
-1.10504
0.610862
-0.607368
1.09373
-0.0901235
1.53023
0.431334
1.90976
0.93156
2.20807
1.393
2.40916
1.80154
2.50936
2.12865
2.49623
2.35731
2.36801
2.48392
2.13616
2.49921
1.80487
2.4068
1.39048
2.21801
0.921476
1.93176
0.414155
1.55796
-0.110123
1.11767
-0.623575
0.623925
-1.11254
0.100827
-1.55726
-0.421288
-1.93087
-0.926984
-2.22257
-1.39447
-2.41976
-1.79726
-2.50685
-2.12415
-2.48641
-2.35949
-1.03909
-0.549098
-1.48494
-0.0307661
-1.86715
0.501314
-2.17737
1.0122
-2.39709
1.47136
-2.50457
1.86204
-2.49985
2.16338
-2.38502
2.36812
-2.16323
2.47994
-1.85333
2.48862
-1.46619
2.38998
-1.00856
2.19128
-0.505617
1.89246
0.0194339
1.50551
0.54619
1.05481
1.04227
0.553764
1.48773
0.0237811
1.87286
-0.503844
2.17652
-1.01037
2.38626
-1.47239
2.49746
-1.86238
2.49644
-2.17109
2.38359
-2.38744
2.17105
-2.49593
1.86159
-2.49814
1.46871
-2.39401
1.01477
-2.18098
0.512189
-1.87514
-0.0154539
-1.49051
-0.537112
-1.03613
1.35759
0.900139
1.76642
0.400641
2.10408
-0.123895
2.35034
-0.644627
2.49388
-1.1416
2.51783
-1.58767
2.42305
-1.95576
2.22813
-2.23941
1.94159
-2.42881
1.57592
-2.51002
1.14938
-2.48422
0.668173
-2.34916
0.149616
-2.10409
-0.375382
-1.76927
-0.887096
-1.36181
-1.3616
-0.894239
-1.77071
-0.392471
-2.10329
0.124792
-2.34532
0.642815
-2.47881
1.13173
-2.50457
1.56998
-2.42308
1.94464
-2.23189
2.23287
-1.94592
2.42295
-1.57738
2.51191
-1.13449
2.48704
-0.643152
2.34897
-0.126506
2.11087
0.398938
1.77818
0.904092
1.36778
2.45311
2.50269
2.2995
2.44769
2.04904
2.29372
1.70133
2.03386
1.27268
1.67413
0.792139
1.23952
0.277157
0.750309
-0.248828
0.234143
-0.758897
-0.278575
-1.24001
-0.777757
-1.67026
-1.25023
-2.0224
-1.67218
-2.28639
-2.02925
-2.45053
-2.30086
-2.50344
-2.46352
-2.4518
-2.51552
-2.29743
-2.45674
-2.03958
-2.28432
-1.69535
-2.01316
-1.27882
-1.65668
-0.80191
-1.22489
-0.292047
-0.744083
0.230235
-0.235238
0.74925
0.288389
1.23457
0.799405
1.66351
1.27533
2.02177
1.70099
2.2865
2.04931
2.44858
2.30359
2.50961
2.46076
1.73929
2.07988
1.33341
2.3306
0.870947
2.47626
0.364933
2.51405
-0.160283
2.43645
-0.686666
2.25089
-1.18469
1.97397
-1.6181
1.61008
-1.97299
1.17355
-2.24088
0.688381
-2.41213
0.169373
-2.49053
-0.358368
-2.47075
-0.864297
-2.33891
-1.3337
-2.10081
-1.74655
-1.76654
-2.07923
-1.3466
-2.32431
-0.868265
-2.4704
-0.353793
-2.50513
0.180377
-2.43447
0.702346
-2.26051
1.18708
-1.98293
1.62077
-1.61914
1.98051
-1.18395
2.25305
-0.691433
2.43506
-0.172402
2.51126
0.349873
2.4752
0.85983
2.33331
1.33031
2.08517
1.74282
-0.0621498
-0.579272
0.460651
-1.07031
0.96999
-1.51198
1.43288
-1.89609
1.82842
-2.20619
2.14727
-2.41551
2.37087
-2.51393
2.49097
-2.49573
2.5074
-2.36012
2.41046
-2.12874
2.20427
-1.8183
1.90499
-1.43281
1.5201
-0.986718
1.06801
-0.492576
0.575075
0.0355007
0.0557449
0.562187
-0.466722
1.0604
-0.963578
1.51692
-1.42132
1.90613
-1.8208
2.20831
-2.13887
2.41455
-2.36772
2.50876
-2.49463
2.48843
-2.506
2.36478
-2.40842
2.13906
-2.20716
1.8206
-1.90624
1.42822
-1.52599
0.970004
-1.08097
0.464065
-0.582653
-0.0596815
-2.14972
-1.83142
-2.36678
-1.43237
-2.48318
-0.971571
-2.49878
-0.465075
-2.40643
0.0576871
-2.21198
0.576047
-1.91813
1.07506
-1.52774
1.52569
-1.06821
1.90747
-0.568884
2.20872
-0.0507659
2.40896
0.458677
2.50085
0.945003
2.48779
1.40319
2.36421
1.80741
2.13695
2.12941
1.82302
2.35673
1.42922
2.4783
0.972451
2.49214
0.477072
2.40213
-0.044144
2.20197
-0.568204
1.89881
-1.06451
1.51456
-1.51639
1.06231
-1.90234
0.563369
-2.19953
0.0469344
-2.40329
-0.472107
-2.50478
-0.973634
-2.49263
-1.43024
-2.37317
-1.82853
-2.15042
-2.43542
-2.2513
-2.51297
-1.9715
-2.47448
-1.60432
-2.33027
-1.17326
-2.08697
-0.695183
-1.74848
-0.178898
-1.33556
0.349675
-0.865107
0.864299
-0.351895
1.34287
0.173565
1.75233
0.688311
2.07428
1.17615
2.30857
1.609
2.44672
1.96901
2.48277
2.24753
2.41419
2.42648
2.23423
2.49982
1.95524
2.47099
1.59751
2.33308
1.16652
2.09074
0.678335
1.75941
0.161504
1.34643
-0.365701
0.8717
-0.878421
0.363703
-1.34639
-0.161914
-1.75615
-0.682027
-2.0914
-1.16811
-2.33138
-1.6059
-2.47255
-1.97499
-2.50945
-2.25236
-2.43308
-0.793848
-1.27089
-0.277424
-1.69397
0.247698
-2.04437
0.756845
-2.30123
1.23616
-2.46056
1.6615
-2.51426
2.01583
-2.45312
2.2895
-2.28685
2.45962
-2.02233
2.51355
-1.66494
2.45595
-1.23745
2.28794
-0.758135
2.02167
-0.242166
1.67602
0.280441
1.25545
0.787879
0.778523
1.26561
0.275699
1.68712
-0.242124
2.03512
-0.756588
2.29997
-1.23811
2.46164
-1.67018
2.51275
-2.03069
2.45748
-2.29421
2.29187
-2.45624
2.02427
-2.51291
1.67275
-2.45697
1.24544
-2.29759
0.761668
-2.04112
0.249236
-1.69064
-0.276319
-1.26765
-0.791544
1.142
1.58267
0.649471
1.95103
0.133025
2.23777
-0.392045
2.42471
-0.902171
2.50457
-1.36854
2.48205
-1.77767
2.35084
-2.11099
2.11286
-2.34747
1.78282
-2.48339
1.36923
-2.51154
0.893513
-2.42425
0.388198
-2.23327
-0.130225
-1.94785
-0.642483
-1.57518
-1.1212
-1.1384
-1.55504
-0.654551
-1.92718
-0.136813
-2.21313
0.385926
-2.4082
0.891222
-2.5034
1.36266
-2.48198
1.77209
-2.34692
2.10207
-2.10557
2.34442
-1.76649
2.48137
-1.35552
2.50755
-0.892078
2.42849
-0.386873
2.241
0.134719
1.95378
0.650483
1.58515
1.14384
2.49822
2.3962
2.49519
2.18627
2.38137
1.87834
2.16179
1.49252
1.85389
1.03889
1.46491
0.537918
1.00983
0.0174788
0.513324
-0.506937
-0.0109403
-1.01117
-0.539853
-1.46556
-1.03926
-1.8562
-1.48947
-2.16549
-1.8709
-2.37516
-2.16314
-2.48524
-2.36517
-2.49159
-2.47083
-2.38732
-2.46315
-2.18265
-2.34794
-1.88431
-2.13854
-1.49801
-1.83813
-1.04738
-1.45792
-0.551599
-1.00739
-0.0263114
-0.498958
0.497832
0.0324307
0.99778
0.555835
1.4577
1.05277
1.85091
1.49809
2.16169
1.87687
2.38307
2.18245
2.49741
2.39411
2.499
1.92886
1.55061
2.22015
1.10209
2.41796
0.611068
2.5071
0.0933681
2.48511
-0.429371
2.35949
-0.928673
2.12802
-1.39117
1.80059
-1.79878
1.39766
-2.12566
0.930873
-2.36043
0.423064
-2.48984
-0.0960622
-2.50007
-0.611302
-2.40042
-1.10128
-2.20162
-1.54022
-1.90565
-1.91696
-1.52513
-2.21409
-1.07716
-2.41124
-0.584601
-2.50578
-0.0783072
-2.4921
0.428094
-2.36379
0.929173
-2.13325
1.39884
-1.81033
1.80993
-1.40387
2.14259
-0.939661
2.3713
-0.437309
2.48804
0.0888125
2.50118
0.609851
2.40845
1.10324
2.21305
1.55169
1.92665
-0.320471
0.208156
-0.831102
0.723995
-1.30659
1.2056
-1.72597
1.63934
-2.0639
1.99998
-2.31319
2.2721
-2.46551
2.44888