# vtk DataFile Version 3.1
vtk output
ASCII
DATASET POLYDATA
POINTS 4260 FLOAT
2.83277e-16          -1    -3.14159
-0.104528 -0.994522  -3.14159
 0.104528 -0.994522  -3.14159
-0.207912 -0.978148  -3.14159
 0.207912 -0.978148  -3.14159
-0.309017 -0.951057  -3.14159
 0.309017 -0.951057  -3.14159
-0.406737 -0.913545  -3.14159
 0.406737 -0.913545  -3.14159
     -0.5 -0.866025  -3.14159
      0.5 -0.866025  -3.14159
-0.587785 -0.809017  -3.14159
 0.587785 -0.809017  -3.14159
-0.669131 -0.743145  -3.14159
 0.669131 -0.743145  -3.14159
-0.743145 -0.669131  -3.14159
 0.743145 -0.669131  -3.14159
-0.809017 -0.587785  -3.14159
 0.809017 -0.587785  -3.14159
-0.866025      -0.5  -3.14159
0.866025     -0.5 -3.14159
-0.913545 -0.406737  -3.14159
 0.913545 -0.406737  -3.14159
-0.951057 -0.309017  -3.14159
 0.951057 -0.309017  -3.14159
-0.978148 -0.207912  -3.14159
 0.978148 -0.207912  -3.14159
-0.994522 -0.104528  -3.14159
 0.994522 -0.104528  -3.14159
          -1 -5.66554e-16     -3.14159
       1        0 -3.14159
-0.994522  0.104528  -3.14159
0.994522 0.104528 -3.14159
-0.978148  0.207912  -3.14159
0.978148 0.207912 -3.14159
-0.951057  0.309017  -3.14159
0.951057 0.309017 -3.14159
-0.913545  0.406737  -3.14159
0.913545 0.406737 -3.14159
-0.866025       0.5  -3.14159
0.866025      0.5 -3.14159
-0.809017  0.587785  -3.14159
0.809017 0.587785 -3.14159
-0.743145  0.669131  -3.14159
0.743145 0.669131 -3.14159
-0.669131  0.743145  -3.14159
0.669131 0.743145 -3.14159
-0.587785  0.809017  -3.14159
0.587785 0.809017 -3.14159
    -0.5 0.866025 -3.14159
     0.5 0.866025 -3.14159
-0.406737  0.913545  -3.14159
0.406737 0.913545 -3.14159
-0.309017  0.951057  -3.14159
0.309017 0.951057 -3.14159
-0.207912  0.978148  -3.14159
0.207912 0.978148 -3.14159
-0.104528  0.994522  -3.14159
0.104528 0.994522 -3.14159
-1.83697e-16            1     -3.14159
-0.052336  -0.99863   -3.0509
0.052336 -0.99863  -3.0509
-0.156434 -0.987688   -3.0509
 0.156434 -0.987688   -3.0509
-0.258819 -0.965926   -3.0509
 0.258819 -0.965926   -3.0509
-0.358368  -0.93358   -3.0509
0.358368 -0.93358  -3.0509
 -0.45399 -0.891007   -3.0509
  0.45399 -0.891007   -3.0509
-0.544639 -0.838671   -3.0509
 0.544639 -0.838671   -3.0509
 -0.62932 -0.777146   -3.0509
  0.62932 -0.777146   -3.0509
-0.707107 -0.707107   -3.0509
 0.707107 -0.707107   -3.0509
-0.777146  -0.62932   -3.0509
0.777146 -0.62932  -3.0509
-0.838671 -0.544639   -3.0509
 0.838671 -0.544639   -3.0509
-0.891007  -0.45399   -3.0509
0.891007 -0.45399  -3.0509
 -0.93358 -0.358368   -3.0509
  0.93358 -0.358368   -3.0509
-0.965926 -0.258819   -3.0509
 0.965926 -0.258819   -3.0509
-0.987688 -0.156434   -3.0509
 0.987688 -0.156434   -3.0509
 -0.99863 -0.052336   -3.0509
  0.99863 -0.052336   -3.0509
-0.99863 0.052336  -3.0509
 0.99863 0.052336  -3.0509
-0.987688  0.156434   -3.0509
0.987688 0.156434  -3.0509
-0.965926  0.258819   -3.0509
0.965926 0.258819  -3.0509
-0.93358 0.358368  -3.0509
 0.93358 0.358368  -3.0509
-0.891007   0.45399   -3.0509
0.891007  0.45399  -3.0509
-0.838671  0.544639   -3.0509
0.838671 0.544639  -3.0509
-0.777146   0.62932   -3.0509
0.777146  0.62932  -3.0509
-0.707107  0.707107   -3.0509
0.707107 0.707107  -3.0509
-0.62932 0.777146  -3.0509
 0.62932 0.777146  -3.0509
-0.544639  0.838671   -3.0509
0.544639 0.838671  -3.0509
-0.45399 0.891007  -3.0509
 0.45399 0.891007  -3.0509
-0.358368   0.93358   -3.0509
0.358368  0.93358  -3.0509
-0.258819  0.965926   -3.0509
0.258819 0.965926  -3.0509
-0.156434  0.987688   -3.0509
0.156434 0.987688  -3.0509
-0.052336   0.99863   -3.0509
0.052336  0.99863  -3.0509
6.12323e-17          -1    -2.96021
-0.104528 -0.994522  -2.96021
 0.104528 -0.994522  -2.96021
-0.207912 -0.978148  -2.96021
 0.207912 -0.978148  -2.96021
-0.309017 -0.951057  -2.96021
 0.309017 -0.951057  -2.96021
-0.406737 -0.913545  -2.96021
 0.406737 -0.913545  -2.96021
     -0.5 -0.866025  -2.96021
      0.5 -0.866025  -2.96021
-0.587785 -0.809017  -2.96021
 0.587785 -0.809017  -2.96021
-0.669131 -0.743145  -2.96021
 0.669131 -0.743145  -2.96021
-0.743145 -0.669131  -2.96021
 0.743145 -0.669131  -2.96021
-0.809017 -0.587785  -2.96021
 0.809017 -0.587785  -2.96021
-0.866025      -0.5  -2.96021
0.866025     -0.5 -2.96021
-0.913545 -0.406737  -2.96021
 0.913545 -0.406737  -2.96021
-0.951057 -0.309017  -2.96021
 0.951057 -0.309017  -2.96021
-0.978148 -0.207912  -2.96021
 0.978148 -0.207912  -2.96021
-0.994522 -0.104528  -2.96021
 0.994522 -0.104528  -2.96021
          -1 -5.66554e-16     -2.96021
          1 2.77556e-17    -2.96021
-0.994522  0.104528  -2.96021
0.994522 0.104528 -2.96021
-0.978148  0.207912  -2.96021
0.978148 0.207912 -2.96021
-0.951057  0.309017  -2.96021
0.951057 0.309017 -2.96021
-0.913545  0.406737  -2.96021
0.913545 0.406737 -2.96021
-0.866025       0.5  -2.96021
0.866025      0.5 -2.96021
-0.809017  0.587785  -2.96021
0.809017 0.587785 -2.96021
-0.743145  0.669131  -2.96021
0.743145 0.669131 -2.96021
-0.669131  0.743145  -2.96021
0.669131 0.743145 -2.96021
-0.587785  0.809017  -2.96021
0.587785 0.809017 -2.96021
    -0.5 0.866025 -2.96021
     0.5 0.866025 -2.96021
-0.406737  0.913545  -2.96021
0.406737 0.913545 -2.96021
-0.309017  0.951057  -2.96021
0.309017 0.951057 -2.96021
-0.207912  0.978148  -2.96021
0.207912 0.978148 -2.96021
-0.104528  0.994522  -2.96021
0.104528 0.994522 -2.96021
-1.83697e-16            1     -2.96021
-0.052336  -0.99863  -2.86952
0.052336 -0.99863 -2.86952
-0.156434 -0.987688  -2.86952
 0.156434 -0.987688  -2.86952
-0.258819 -0.965926  -2.86952
 0.258819 -0.965926  -2.86952
-0.358368  -0.93358  -2.86952
0.358368 -0.93358 -2.86952
 -0.45399 -0.891007  -2.86952
  0.45399 -0.891007  -2.86952
-0.544639 -0.838671  -2.86952
 0.544639 -0.838671  -2.86952
 -0.62932 -0.777146  -2.86952
  0.62932 -0.777146  -2.86952
-0.707107 -0.707107  -2.86952
 0.707107 -0.707107  -2.86952
-0.777146  -0.62932  -2.86952
0.777146 -0.62932 -2.86952
-0.838671 -0.544639  -2.86952
 0.838671 -0.544639  -2.86952
-0.891007  -0.45399  -2.86952
0.891007 -0.45399 -2.86952
 -0.93358 -0.358368  -2.86952
  0.93358 -0.358368  -2.86952
-0.965926 -0.258819  -2.86952
 0.965926 -0.258819  -2.86952
-0.987688 -0.156434  -2.86952
 0.987688 -0.156434  -2.86952
 -0.99863 -0.052336  -2.86952
  0.99863 -0.052336  -2.86952
-0.99863 0.052336 -2.86952
 0.99863 0.052336 -2.86952
-0.987688  0.156434  -2.86952
0.987688 0.156434 -2.86952
-0.965926  0.258819  -2.86952
0.965926 0.258819 -2.86952
-0.93358 0.358368 -2.86952
 0.93358 0.358368 -2.86952
-0.891007   0.45399  -2.86952
0.891007  0.45399 -2.86952
-0.838671  0.544639  -2.86952
0.838671 0.544639 -2.86952
-0.777146   0.62932  -2.86952
0.777146  0.62932 -2.86952
-0.707107  0.707107  -2.86952
0.707107 0.707107 -2.86952
-0.62932 0.777146 -2.86952
 0.62932 0.777146 -2.86952
-0.544639  0.838671  -2.86952
0.544639 0.838671 -2.86952
-0.45399 0.891007 -2.86952
 0.45399 0.891007 -2.86952
-0.358368   0.93358  -2.86952
0.358368  0.93358 -2.86952
-0.258819  0.965926  -2.86952
0.258819 0.965926 -2.86952
-0.156434  0.987688  -2.86952
0.156434 0.987688 -2.86952
-0.052336   0.99863  -2.86952
0.052336  0.99863 -2.86952
6.12323e-17          -1    -2.77883
-0.104528 -0.994522  -2.77883
 0.104528 -0.994522  -2.77883
-0.207912 -0.978148  -2.77883
 0.207912 -0.978148  -2.77883
-0.309017 -0.951057  -2.77883
 0.309017 -0.951057  -2.77883
-0.406737 -0.913545  -2.77883
 0.406737 -0.913545  -2.77883
     -0.5 -0.866025  -2.77883
      0.5 -0.866025  -2.77883
-0.587785 -0.809017  -2.77883
 0.587785 -0.809017  -2.77883
-0.669131 -0.743145  -2.77883
 0.669131 -0.743145  -2.77883
-0.743145 -0.669131  -2.77883
 0.743145 -0.669131  -2.77883
-0.809017 -0.587785  -2.77883
 0.809017 -0.587785  -2.77883
-0.866025      -0.5  -2.77883
0.866025     -0.5 -2.77883
-0.913545 -0.406737  -2.77883
 0.913545 -0.406737  -2.77883
-0.951057 -0.309017  -2.77883
 0.951057 -0.309017  -2.77883
-0.978148 -0.207912  -2.77883
 0.978148 -0.207912  -2.77883
-0.994522 -0.104528  -2.77883
 0.994522 -0.104528  -2.77883
          -1 -1.22465e-16     -2.77883
          1 5.55112e-17    -2.77883
-0.994522  0.104528  -2.77883
0.994522 0.104528 -2.77883
-0.978148  0.207912  -2.77883
0.978148 0.207912 -2.77883
-0.951057  0.309017  -2.77883
0.951057 0.309017 -2.77883
-0.913545  0.406737  -2.77883
0.913545 0.406737 -2.77883
-0.866025       0.5  -2.77883
0.866025      0.5 -2.77883
-0.809017  0.587785  -2.77883
0.809017 0.587785 -2.77883
-0.743145  0.669131  -2.77883
0.743145 0.669131 -2.77883
-0.669131  0.743145  -2.77883
0.669131 0.743145 -2.77883
-0.587785  0.809017  -2.77883
0.587785 0.809017 -2.77883
    -0.5 0.866025 -2.77883
     0.5 0.866025 -2.77883
-0.406737  0.913545  -2.77883
0.406737 0.913545 -2.77883
-0.309017  0.951057  -2.77883
0.309017 0.951057 -2.77883
-0.207912  0.978148  -2.77883
0.207912 0.978148 -2.77883
-0.104528  0.994522  -2.77883
0.104528 0.994522 -2.77883
-1.83697e-16            1     -2.77883
-0.052336  -0.99863  -2.68814
0.052336 -0.99863 -2.68814
-0.156434 -0.987688  -2.68814
 0.156434 -0.987688  -2.68814
-0.258819 -0.965926  -2.68814
 0.258819 -0.965926  -2.68814
-0.358368  -0.93358  -2.68814
0.358368 -0.93358 -2.68814
 -0.45399 -0.891007  -2.68814
  0.45399 -0.891007  -2.68814
-0.544639 -0.838671  -2.68814
 0.544639 -0.838671  -2.68814
 -0.62932 -0.777146  -2.68814
  0.62932 -0.777146  -2.68814
-0.707107 -0.707107  -2.68814
 0.707107 -0.707107  -2.68814
-0.777146  -0.62932  -2.68814
0.777146 -0.62932 -2.68814
-0.838671 -0.544639  -2.68814
 0.838671 -0.544639  -2.68814
-0.891007  -0.45399  -2.68814
0.891007 -0.45399 -2.68814
 -0.93358 -0.358368  -2.68814
  0.93358 -0.358368  -2.68814
-0.965926 -0.258819  -2.68814
 0.965926 -0.258819  -2.68814
-0.987688 -0.156434  -2.68814
 0.987688 -0.156434  -2.68814
 -0.99863 -0.052336  -2.68814
  0.99863 -0.052336  -2.68814
-0.99863 0.052336 -2.68814
 0.99863 0.052336 -2.68814
-0.987688  0.156434  -2.68814
0.987688 0.156434 -2.68814
-0.965926  0.258819  -2.68814
0.965926 0.258819 -2.68814
-0.93358 0.358368 -2.68814
 0.93358 0.358368 -2.68814
[...]
POINT_DATA 4260
SCALARS Field double
LOOKUP_TABLE default
0.0370698
-1.63194
1.65252
-2.50867
2.44307
-2.13891
1.99387
-0.760622
0.539136
0.938429
-1.1168
2.13703
-2.12616
2.21928
-1.96121
1.19224
-0.654077
-0.366871
1.10089
-1.69105
2.38042
-2.10466
2.54846
-1.40108
1.4741
-0.0161292
-0.319255
1.31823
-1.88278
1.9205
-2.44491
1.43613
-1.73182
0.133488
-0.0710914
-1.27144
1.66341
-2.06402
2.5801
-1.79065
2.26389
-0.534916
0.870725
1.03907
-0.880282
2.13478
-2.04569
2.19604
-2.05937
1.11978
-0.94269
-0.566939
0.748085
-2.0003
2.09954
-2.4933
2.39121
-1.77352
1.49822
-0.163208
-1.69156
0.0121649
-2.54388
1.68284
-2.16127
2.46382
-0.736161
2.00521
1.03082
0.532037
2.21548
-1.1917
2.25487
-2.22028
1.18832
-2.03231
-0.451875
-0.726153
-1.80748
1.06502
-2.17377
2.38591
-1.43228
2.53236
0.0131603
1.45334
1.41709
-0.334592
2.00546
-1.93438
1.4891
-2.49515
0.173095
-1.76321
-1.28124
-0.131889
-2.08777
1.59925
-1.78073
2.52404
-0.535262
2.17198
1.03121
0.77959
2.13666
-0.950367
2.15868
-2.13656
1.07063
-2.13751
-0.572463
-0.989364
-1.98591
0.696926
-2.43816
2.08832
-1.65995
2.44394
-0.0645841
1.56721
-1.66704
-2.56299
0.0439898
-2.17723
1.73199
-0.68627
2.50477
1.10889
1.95518
2.31133
0.409624
2.35121
-1.35193
1.19358
-2.42282
-0.539449
-2.20439
-1.93165
-0.829656
-2.32266
0.981802
-1.52741
2.33229
0.0428547
2.49763
1.52409
1.37684
2.16369
-0.420826
1.67076
-2.00401
0.282349
-2.58255
-1.25164
-1.83557
-2.09672
-0.184149
-1.84425
1.50631
-0.607921
2.40937
0.998984
2.04737
2.10205
0.607843
2.13049
-1.12208
1.07649
-2.27585
-0.57388
-2.27398
-1.97025
-1.07936
-2.36624
0.676037
-1.5793
2.09351
0.0247736
2.50059
1.67417
-2.55119
-1.61069
-2.16069
0.14446
-0.674246
1.78697
1.1591
2.49621
2.42762
1.87106
2.4506
0.214871
1.23783
-1.5827
-0.558311
-2.62002
-2.05905
-2.3742
-2.4988
-0.932211
-1.64986
0.941198
-0.00657572
2.27492
1.59049
2.42891
2.3551
1.3063
1.88051
-0.524593
0.453
-2.08908
-1.14129
-2.62236
-2.10596
-1.88143
-1.9342
-0.226036
-0.702203
1.45761
0.898166
2.29191
2.03421
1.89278
2.12971
0.447611
1.08534
-1.30726
-0.555696
-2.42951
-1.92024
-2.36477
-2.33103
-1.14639
-1.54209
0.660975
0.0955188
2.13487
1.72735
2.53928
-2.48815
-2.16504
-1.52779
-0.700085
0.240926
1.18402
1.85814
2.48064
2.4554
2.53411
1.7441
1.33883
0.0509723
-0.536981
-1.7733
-2.13052
-2.75734
-2.61702
-2.4239
-1.80565
-0.955332
-0.114891
0.93888
1.61225
2.27334
2.4685
2.36901
2.05942
1.23226
0.658552
-0.569161
-1.02222
-2.1244
-2.09488
-2.61171
-1.99255
-1.82799
-0.833312
-0.207095
0.763456
1.44381
1.96974
2.24723
2.10576
1.78096
1.10535
0.324914
-0.486987
-1.39804
-1.87545
-2.51418
-2.31226
-2.40718
-1.52037
-1.14033
0.0830361
0.655236
1.70698
2.13456
2.55109
-2.17893
-2.43296
-0.735706
-1.40987
1.12422
0.327804
2.45528
1.89706
2.5916
2.44085
1.41363
1.64861
-0.476258
-0.0479377
-2.09907
-1.8116
-2.67924
-2.75553
-1.9254
-2.36146
-0.209337
-0.854846
1.5533
0.989845
2.49049
2.28307
2.18271
2.36053
0.790284
1.19269
-0.928078
-0.5715
-2.0523
-2.05409
-2.05652
-2.52073
-0.960957
-1.71438
0.653745
-0.0919558
1.88066
1.49096
2.07739
2.25551
1.16402
1.78277
-0.416014
0.300679
-1.81602
-1.39823
-2.26402
-2.47332
-1.54184
-2.38395
0.0131127
-1.1246
1.64151
0.659846
2.47139
2.07671
-2.16801
-0.812935
-2.38142
1.0066
-1.32028
2.37861
0.425871
2.5514
1.9286
1.43553
2.43956
-0.385898
1.66176
-2.03133
-0.024493
-2.65992
-1.72185
-1.93806
-2.59155
-0.281905
-2.20496
1.47401
-0.720801
2.47168
1.0853
2.1921
2.29477
0.826231
2.35006
-0.870906
1.21855
-2.05551
-0.52095
-2.12102
-1.94014
-1.04203
-2.34825
0.546557
-1.56237
1.80267
0.041584
2.08604
1.60995
1.214
2.3248
-0.335334
1.8546
-1.71251
0.406029
-2.22062
-1.3043
-1.56665
-2.37718
-0.0493347
-2.29865
1.51615
-1.11968
2.33098
0.606026
1.98861
-0.891257
-2.17158
0.898075
-2.31192
2.23476
-1.25733
2.43629
0.484035
1.41444
1.9906
-0.35451
2.47895
-1.95863
1.74068
-2.55669
0.130431
-1.88661
-1.5417
-0.283328
-2.38835
1.45838
-2.00956
2.41779
-0.614586
2.13493
1.12548
0.804129
2.30773
-0.910825
2.33325
-2.11209
1.24287
-2.17068
-0.422233
-1.12355
-1.82083
0.468234
-2.20375
1.78359
-1.40539
2.09723
0.152606
1.26911
1.71216
-0.224575
2.45069
-1.62319
1.97452
-2.17109
0.551494
-1.54887
-1.13782
-0.115526
-2.26596
1.39193
-2.24106
2.2072
-1.11703
1.85573
0.513328
-0.917027
0.797359
-2.17387
2.09268
-2.28223
2.32092
-1.20323
1.3204
0.509016
-0.386128
2.02911
-1.8959
2.5691
-2.46834
1.85407
-1.79349
0.294211
-0.188297
-1.34057
1.48905
-2.23677
2.39504
-1.91209
2.09834
-0.568695
0.721673
1.09074
-1.01136
2.2596
-2.18883
2.32429
-2.25923
1.24935
-1.19813
-0.371296
0.450378
-1.7304
1.78519
-2.14151
2.13323
-1.3511
1.36104
0.220074
-0.140285
1.76625
-1.55358
2.54014
-2.10389
2.11725
-1.54181
0.686498
-0.158135
-1.00893
1.33587
-2.15959
2.10581
-2.22156
1.74439
-1.15419
0.449274
0.749807
-0.930759
2.03636
-2.15532
2.22128
-2.29284
1.2178
-1.21622
-0.431384
0.519751
-1.90835
2.03737
-2.42898
2.62033
-1.68616
1.96139
-0.0868624
0.39023
1.56762
-1.25844
2.45612
-2.18283
2.08365
-1.94284
0.648626
-0.641106
-1.09553
1.02017
-2.30472
2.17556
-2.36476
2.27416
-1.23928
1.24447
0.440427
-0.394143
1.8192
-1.75949
2.22702
-2.16976
1.44554
-1.41394
-0.0740613
0.175751
-1.48966
1.77674
-2.09084
2.56925
-1.55832
2.18664
-0.162257
0.786892
1.30674
-0.948818
2.06868
-2.12521
1.73068
-2.20062
0.41666
-1.18226
0.785339
2.04508
-0.934563
2.20168
-2.18116
1.19673
-2.32482
-0.48803
-1.28539
-1.96286
0.464702
-2.42686
2.02635
-1.65943
2.6075
-0.0238379
1.96099
1.67729
0.392667
2.53593
-1.31832
2.11892
-2.27814
0.653556
-2.04448
-1.16339
-0.769818
-2.40753
0.917041
-2.43637
2.11978
-1.29109
2.20892
0.443181
1.17757
1.90541
-0.469172
2.327
-1.89442
1.53726
-2.32122
0.00685785
-1.54203
-1.48175
0.051926
-2.13463
1.70243
-1.5964
2.5554
-0.207877
2.17153
1.29039
0.783351
2.11602
-0.935508
1.78109
-2.13585
0.460911
-2.19179
-1.13102
2.11672
0.826201
2.30266
-0.92709
1.24833
-2.2498
-0.489857
-2.41903
-1.98387
-1.36482
-2.48849
0.371649
-1.7131
1.95135
-0.0117941
2.55157
1.71664
1.85929
2.60167
0.264639
2.21059
-1.45192
0.693502
-2.44111
-1.17725
-2.17911
-2.43705
-0.843133
-2.49839
0.858324
-1.33346
2.08452
0.480109
2.17918
1.98112
1.08053
2.43318
-0.612006
1.66287
-2.05592
0.0629632
-2.51922
-1.50532
-1.71737
-2.19992
-0.0701734
-1.71239
1.58756
-0.309529
2.46583
1.27689
2.10857
2.16099
0.700937
1.88157
-0.991392
0.607363
-2.12819
-1.02899
-2.15
2.23063
2.44088
0.843221
1.3794
-0.974702
-0.382533
-2.32212
-1.97323
-2.52976
-2.5546
-1.46153
-1.79138
0.306031
-0.101518
1.85556
1.66797
2.4359
2.63712
1.72984
2.26826
0.0879889
0.754528
-1.61473
-1.11442
-2.54049
-2.43205
-2.23938
-2.52519
-0.837898
-1.33125
0.914342
0.497088
2.10406
2.04193
2.15731
2.55591
1.0175
1.76452
-0.75018
0.111798
-2.21045
-1.51104
-2.6472
-2.30755
-1.84892
-1.87414
-0.177886
-0.437125
1.50189
1.19537
2.34277
2.1726
1.98047
2.01174
0.604032
0.769101
-1.06688
-0.88102
-2.12019
-2.03681
2.56409
2.2829
1.5675
0.837611
-0.233024
-1.05561
-1.90058
-2.40767
-2.55294
-2.57567
-1.89209
-1.50962
-0.243788
0.266401
1.57007
1.8115
2.57739
2.32618
2.27025
1.59533
0.827919
-0.0213817
-1.05123
-1.70127
-2.39425
-2.54448
-2.49079
-2.14636
-1.33191
-0.724144
0.501861
1.03203
2.10326
2.19831
2.62805
2.1646
1.8378
0.978939
0.178625
-0.791056
-1.53086
-2.26931
-2.41161
-2.68018
-2.01092
-1.85129
-0.604128
-0.219447
1.06976
1.42859
2.16259
2.24614
2.08189
1.83583
0.905385
0.483681
-0.702575
-1.10434
-1.92112
-2.09343
2.6397
1.69378
2.25551
-0.084481
0.768209
-1.76028
-1.1033
-2.51593
-2.44035
-1.95752
-2.55377
-0.354758
-1.44118
1.42042
0.296266
2.45734
1.80295
2.24119
2.2933
0.842333
1.52377
-1.00563
-0.0535318
-2.32106
-1.64063
-2.45886
-2.42819
-1.32909
-1.97041
0.521066
-0.521483
2.1121
1.17147
2.65009
2.28513
1.89565
2.22513
0.203572
1.00141
-1.55088
-0.74234
-2.46065
-2.16649
-2.12814
-2.58257
-0.746811
-1.76261
0.973893
-0.162529
2.10549
1.38912
2.09524
2.15056
1.00968
1.7338
-0.588742
0.377738
-1.8316
-1.14358
-2.03749
1.71734
2.59481
0.0274462
2.18781
-1.65137
0.687137
-2.4508
-1.11683
-1.94294
-2.35229
-0.43767
-2.43184
1.28832
-1.30408
2.3553
0.415791
2.16277
1.83955
0.81614
2.29627
-0.962156
1.55381
-2.282
0.0032618
-2.43582
-1.50828
-1.30342
-2.22398
0.507441
-1.78394
2.08627
-0.367004
2.65391
1.28831
1.88571
2.33416
0.187331
2.27745
-1.55326
1.11333
-2.50222
-0.596336
-2.19364
-1.96972
-0.794765
-2.36192
0.914216
-1.61119
2.06388
-0.0829857
2.11158
1.40495
1.03624
2.07967
-0.552101
1.64547
-1.7759
0.323661
-2.03049
-1.18469
1.65756
0.0176224
2.46583
-1.61011
2.0774
-2.37031
0.670753
-1.9134
-1.05348
-0.466251
-2.19298
1.24087
-2.21328
2.27368
-1.1341
2.09466
0.527609
0.809569
1.90987
-0.957012
2.31717
-2.26904
1.60354
-2.40455
0.124662
-1.31094
-1.36978
0.475899
-2.07775
2.06839
-1.66026
2.61069
-0.332824
1.83475
1.28011
0.160873
2.34553
-1.59744
2.31642
-2.54249
1.24087
-2.1901
-0.3741
-0.788096
-1.73889
0.934388
-2.1447
2.11643
-1.43502
2.13566
-0.00837135
1.03431
1.41888
-0.551851
2.07021
-1.81387
1.5906
-2.08504
0.269079
-1.21865
-0.0899676
1.50622
-1.62554
2.33779
-2.35649
1.99008
-1.88971
0.697562
-0.431055
-0.897938
1.2334
-2.00041
2.24992
-2.02125
2.1028
-0.982378
0.813008
0.577456
-0.948517
1.91475
-2.23909
2.34015
-2.41136
1.63544
-1.34237
0.19661
0.457341
-1.27765
2.02537
-2.05786
2.56025
-1.70996
1.80367
-0.424863
0.0999004
1.15103
-1.66773
2.27273
-2.57181
2.35667
-2.19887
1.35111
-0.745991
-0.199482
1.05213
-1.53843
2.23325
-2.00464
2.22155
-1.33893
1.08401
0.0666701
-0.594541
1.44437
-1.91569
2.0843
-2.17658
1.59939
-1.30817
0.214356
-0.213697
-1.71879
1.3427
-2.39835
2.22058
-1.8675
1.98274
-0.412966
0.767558
1.25117
-0.752409
2.3
-1.82677
2.14538
-1.92675
0.860761
-0.965595
-0.880015
0.548162
-2.21571
1.84063
-2.42969
2.29609
-1.3656
1.64917
0.403715
0.194747
1.97654
-1.31519
2.55332
-2.15498
1.78104
-1.91084
0.0567781
-0.654059
-1.70817
0.97473
-2.63839
2.15733
-2.23958
2.34475
-0.691621
1.42566
1.16852
-0.134157
2.39749
-1.4899
2.4038
-1.96491
1.17342
-1.32998
-0.620383
0.103377
-2.01285
1.52804
-2.33488
2.14331
-1.44518
1.61997
0.176639
-1.81866
-0.334742
-2.43273
1.25218
-1.88908
2.15668
-0.419388
1.99816
1.28572
0.863232
2.33635
-0.671003
2.20638
-1.78758
0.971218
-1.94927
-0.790639
-1.08759
-2.16595
0.401938
-2.41102
1.73905
-1.41853
2.22091
0.326084
1.61324
1.94523
0.161929
2.54521
-1.44188
1.80064
-2.36298
0.0993891
-2.15499
-1.7232
-0.916225
-2.70288
0.7841
-2.28919
2.07295
-0.715241
2.29444
1.22961
1.38657
2.57408
-0.189668
2.59704
-1.60606
1.31442
-2.0677
-0.56864
-1.34995
-2.10973
0.149434
-2.51642
1.64651
-1.59178
2.27851
0.0986737
1.65132
-1.84031
-2.45451
-0.394968
-1.90549
1.20697
-0.41313
2.16474
1.26923
2.01462
2.33084
0.889173
2.26585
-0.66598
1.05699
-1.88439
-0.686012
-2.11707
-2.05706
-1.26957
-2.38566
0.220467
-1.47243
1.63156
0.255363
2.20184
1.8699
1.59177
2.52907
0.106017
1.883
-1.55673
0.195279
-2.57265
-1.6623
-2.37719
-2.69099
-1.07564
-2.36677
0.671861
-0.812057
2.01505
1.21839
2.24376
2.64662
1.24264
2.7487
-0.403782
1.5007
-1.82312
-0.483933
-2.24429
-2.16419
-1.3848
-2.65688
0.276188
-1.77704
1.8226
-0.0147086
2.42828
1.7012
-2.41095
-1.80918
-1.8438
-0.365468
-0.407107
1.20111
1.22726
2.16489
2.2952
2.02915
2.23487
0.844337
1.08127
-0.770466
-0.577238
-2.03918
-1.95284
-2.33594
-2.33206
-1.46247
-1.47818
0.126067
0.156361
1.60993
1.75378
2.25165
2.50226
1.66378
1.94215
0.0969983
0.334216
-1.63249
-1.48764
-2.66547
-2.61111
-2.47166
-2.40951
-1.10081
-0.918316
0.716667
1.08563
2.01956
2.58714
2.16065
2.8277
1.04953
1.6323
-0.711565
-0.377234
-2.11059
-2.13563
-2.38428
-2.77309
-1.36315
-1.96467
0.458223
-0.134128
2.06971
1.6971
2.57046
-2.2757
-1.72895
-1.73664
-0.348298
-0.332588
1.22715
1.22489
2.20138
2.14723
2.11736
1.99515
1.0377
0.789705
-0.555698
-0.905676
-1.87063
-2.21029
-2.225
-2.4787
-1.46279
-1.5613
0.0688393
0.139915
1.63517
1.7424
2.39439
2.40226
1.94019
1.79392
0.489162
0.181944
-1.28007
-1.62383
-2.44322
-2.64705
-2.34283
-2.37367
-1.02122
-0.95899
0.888158
0.876442
2.43316
2.11554
2.7589
2.07265
1.67703
0.806886
-0.252568
-1.00887
-2.0758
-2.3717
-2.83096
-2.46645
-2.09563
-1.22777
-0.294124
0.690833
1.63195
2.29734
2.69122
-1.56715
-2.14511
-0.192718
-1.65324
1.26362
-0.33121
2.11147
1.20663
1.97263
2.14807
0.87802
1.96591
-0.634952
0.740927
-1.81482
-0.966601
-2.1279
-2.30661
-1.39879
-2.53059
0.0586283
-1.50327
1.50166
0.277487
2.22507
1.95457
1.87164
2.63763
0.54713
1.94995
-1.09385
0.277978
-2.19365
-1.52873
-2.20052
-2.52811
-1.05258
-2.15843
0.725746
-0.658902
2.19033
1.12611
2.57082
2.23735
1.64784
2.02154
-0.184405
0.573543
-1.98579
-1.27494
-2.78728
-2.51757
-2.18441
-2.45301
-0.454959
-1.04241
1.53597
0.953449
2.70952
2.46095
-1.39179
-0.0142451
-2.07832
1.36975
-1.66469
2.1071
-0.357722
1.81288
1.17268
0.654638
2.1595
-0.782358
2.0228
-1.85591
0.764682
-2.0519
-0.961298
-1.25772
-2.28227
0.111473
-2.48735
1.41992
-1.37608
2.06724
0.498571
1.69456
2.17397
0.47888
2.82004
-0.972321
2.07474
-1.97764
0.322902
-1.999
-1.46169
-0.958773
-2.34884
0.616158
-1.8865
1.94536
-0.318432
2.34513
1.43621
1.51327
2.36658
-0.172712
1.96664
-1.85161
0.410755
-2.68544
-1.46199
-2.19043
-2.57871
-0.547026
-2.33463
1.38856
-0.847668
2.62915
1.13783
2.54643
0.138362
-1.32833
1.55383
-2.10667
2.17104
-1.77719
1.71653
-0.440231
0.462172
1.19538
-1.0087
2.24182
-1.9829
2.14606
-1.99525
0.889666
-1.10829
-0.902554
0.252456
-2.23675
1.46926
-2.39377
1.94165
-1.2542
1.47331
0.658151
0.319448
2.32933
-1.00725
2.87065
-1.85389
2.04025
-1.76929
0.27123
-0.804509
-1.48174
0.60562
-2.2299
1.79404
-1.60758
2.10057
3.90276e-05
1.3234
1.70417
-0.18509
2.50231
-1.73698
1.91488
-2.52395
0.280899
-2.06935
-1.54
-0.577571
-2.56746
1.24659
-2.20662
2.50498
-0.673159
2.49607
1.21038
0.220046
1.71301
-1.41728
2.30934
-2.28912
1.75489
-1.92868
0.322787
-0.506998
-1.24017
1.2755
-2.14573
2.43819
-2.02685
2.32358
-0.977152
1.00628
0.487703
-0.844009
1.62263
-2.24206
1.92494
-2.38074
1.31602
-1.18707
0.0773743
0.702519
-1.17952
2.31894
-1.83598
2.77497
-1.62319
1.82612
-0.62548
0.0460727
0.717578
-1.59623
1.726
-2.20326
1.90556
-1.4174
1.15146
0.276026
-0.257391
1.90192
-1.64877
2.57549
-2.30045
1.88445
-1.87754
0.183908
-0.51292
-1.57841
1.18629
-2.4945
2.33885
-2.10646
2.34724
-0.603155
1.19198
1.79537
0.134253
2.50642
-1.63114
1.88447
-2.56059
0.300342
-2.09072
-1.38275
-0.466598
-2.35038
1.4461
-2.13883
2.66289
-0.882854
2.50334
0.712911
1.03525
1.86703
-0.916447
2.07296
-2.32887
1.24724
-2.46565
-0.150705
-1.23152
-1.40455
0.667647
-1.9669
2.17991
-1.58819
2.5199
-0.447309
1.4949
0.869229
-0.310669
1.75562
-1.83126
1.82154
-2.23489
0.986295
-1.31256
-0.364362
0.448737
-1.57758
2.04244
-2.10341
2.58358
-1.64002
1.81779
-0.331887
0.132957
1.1881
-1.59194
2.19251
-2.43691
2.17918
-2.0283
1.06381
-0.628367
1.78243
2.65341
-0.101419
2.08522
-1.95675
0.437278
-2.79825
-1.43302
-2.16438
-2.53008
-0.33437
-2.28578
1.70173
-0.909146
2.84886
0.868947
2.54278
2.16164
0.934937
2.31075
-1.12759
1.31177
-2.52267
-0.260766
-2.56855
-1.64961
-1.30197
-2.18602
0.592381
-1.63611
2.03425
-0.355353
2.21296
1.02835
1.08821
1.88879
-0.693624
1.80785
-2.11052
0.862776
-2.32194
-0.463443
-1.23622
-1.58645
0.539464
-1.9662
2.08178
-1.38268
2.55426
-0.120503
1.72177
1.25911
0.0757367
2.12627
-1.55973
1.99482
-2.38959
0.883786
-2.01079
-0.690431
2.7128
1.62151
2.32712
-0.399789
0.660471
-2.27624
-1.35466
-2.9499
-2.6056
-2.07094
-2.47614
-0.115177
-1.04886
1.91753
0.924847
2.93396
2.37059
2.40291
2.57786
0.665644
1.51498
-1.3812
-0.265575
-2.70365
-1.83097
-2.6218
-2.39623
-1.25653
-1.78119
0.606279
-0.346612
1.94955
1.18865
1.98555
2.04476
0.713897
1.8657
-1.05514
0.821332
-2.32157
-0.586986
-2.38938
-1.66726
-1.19269
-1.89294
0.59808
-1.20799
2.04013
0.0776721
2.45116
1.39679
1.63759
2.09492
0.0350328
1.83524
-1.5148
0.723718
-2.30547
-0.797523
-2.01615
2.6902
2.5009
1.3691
0.929153
-0.713932
-1.13239
-2.45655
-2.59118
-2.9362
-2.64294
-1.866
-1.24223
0.149392
0.812468
2.02285
2.43689
2.82033
2.81353
2.13524
1.74224
0.34199
-0.167727
-1.58753
-1.88444
-2.71265
-2.58573
-2.50564
-1.96233
-1.05621
-0.377379
0.812228
1.28436
2.0087
2.20532
1.85074
2.00532
0.462019
0.818253
-1.30986
-0.704365
-2.43567
-1.77701
-2.35525
-1.93973
-1.14444
-1.13904
0.592664
0.244107
1.95943
1.5128
2.30374
2.09035
1.54625
1.73536
0.068843
0.558357
-1.42195
-0.912662
-2.20838
-1.99054
2.5768
2.55112
1.20381
1.12574
-0.859811
-0.932766
-2.46777
-2.47884
-2.70747
-2.72824
-1.47632
-1.59735
0.575829
0.321779
2.36666
1.98886
2.90304
2.54575
1.92898
1.79434
0.0101612
0.138511
-1.86373
-1.59666
-2.71003
-2.51717
-2.10824
-2.16015
-0.470209
-0.701349
1.32433
1.12939
2.37664
2.21086
2.15823
1.80045
0.864352
0.306145
-0.765697
-1.38459
-1.93378
-2.40396
-2.07555
-2.24594
-1.14861
-1.06211
0.310242
0.530558
1.59079
1.80631
2.12155
2.17058
1.64056
1.49316
0.400335
0.160708
-1.00217
-1.23435
-1.97739
-2.08139
2.56689
1.37492
2.35279
-0.588493
0.91939
-2.23478
-0.966539
-2.6893
-2.32189
-1.66835
-2.43487
0.314095
-1.33177
2.14635
0.348146
2.84324
1.76802
2.05098
2.22295
0.163054
1.53544
-1.78791
0.129923
-2.73756
-1.33501
-2.24223
-2.11252
-0.58991
-1.69408
1.34079
-0.322187
2.49446
1.41666
2.31544
2.386
0.981937
1.78262
-0.801367
0.248866
-2.08992
-1.30628
-2.23214
-2.19965
-1.25671
-2.07942
0.298254
-1.02091
1.65952
0.429706
2.13822
1.60535
1.56056
2.0397
0.276379
1.54046
-1.12378
0.333974
-1.98635
-1.0073
-1.91609
1.41825
2.43645
-0.358161
2.17719
-1.99463
0.819158
-2.57962
-0.854785
-1.73902
-2.01273
0.0620072
-2.1356
1.86491
-1.2041
2.69987
0.230985
2.05254
1.43634
0.269455
1.91492
-1.66172
1.49094
-2.72916
0.366271
-2.34312
-0.915514
-0.692467
-1.60358
1.29042
-1.3582
2.55841
-0.264457
2.48449
1.48265
1.10984
2.35186
-0.791521
1.69479
-2.18578
0.324129
-2.4144
-1.08045
-1.4108
-1.91344
0.268629
-1.88763
1.69399
-1.05862
2.17066
0.235759
1.54273
1.41106
0.150023
1.95396
-1.27361
1.65759
-2.01708
0.603048
-1.8036
-0.77067
1.35493
-0.267483
2.2367
-1.79703
2.02382
-2.38763
0.869114
-1.72202
-0.62301
-0.103478
-1.68931
1.63455
-1.89696
2.49411
-1.24221
1.98047
-0.0493433
0.357161
1.10638
-1.54983
1.73129
-2.68354
1.63859
-2.37938
0.796071
-0.814717
-0.536128
1.19148
-1.37358
2.58874
-1.25534
2.59727
-0.352136
1.24136
1.34431
-0.710484
2.09923
-2.25176
1.59599
-2.5786
0.508805
-1.54639
-0.720434
0.204308
-1.61983
1.7318
-1.79165
2.2765
-1.18123
1.57312
-0.0322447
0.0638137
1.21327
-1.40748
1.96958
-2.13298
1.845
-1.78105
0.875945
-0.555093
-0.31955
1.162
-1.66566
2.0428
-2.21584
1.93791
-1.6264
1.00101
-0.130647
-0.314478
1.46618
-1.42313
2.30715
-1.8244
1.91375
-1.41062
0.400769
-0.404716
-1.43672
0.808289
-2.57351
1.72515
-2.39282
1.94599
-0.930489
1.19221
1.08373
-0.430964
2.53587
-1.36674
2.65074
-1.27298
1.38577
-0.362724
-0.617318
1.03195
-2.27174
1.77615
-2.67924
1.62858
-1.69285
0.801328
0.129172
-0.345458
1.81033
-1.37987
2.42216
-1.84344
1.69198
-1.43716
0.0898512
-0.304089
-1.53314
1.06461
-2.30998
2.05116
-1.84495
2.09851
-0.466052
1.09966
-0.466289
-1.67019
0.904074
-2.09762
1.85224
-1.46819
1.95529
-0.0840385
1.18915
1.39126
-0.0484715
2.20592
-1.24301
1.84219
-1.90249
0.436749
-1.70123
-1.28533
-0.728063
-2.44304
0.611138
-2.36014
1.80638
-0.992297
2.28374
0.938103
1.39842
2.42061
-0.413868
2.66734
-1.39576
1.47971
-1.43618
-0.512826
-0.617197
-2.2188
0.652142
-2.75768
1.58788
-1.83432
1.80054
0.0641485
1.18538
1.86149
-0.0416512
2.5997
-1.31128
1.92939
-2.02542
0.210957
-1.77451
-1.58935
-0.561108
-2.47385
1.03608
-2.03135
2.19886
-0.525998
2.32019
1.24434
-1.78001
-0.70611
-2.02597
0.668099
-1.33695
1.71515
0.0132314
2.01784
1.42063
1.416
2.14334
0.145334
1.78732
-1.20643
0.497109
-2.05746
-1.14736
-2.0112
-2.28218
-0.997846
-2.24561
0.5458
-1.02842
1.9065
0.792395
2.41095
2.29015
1.42707
2.60267
-0.40503
1.52673
-1.61051
-0.378113
-1.84146
-2.14235
-1.04872
-2.79517
0.390061
-1.93809
1.63349
-0.0535839
2.08842
1.85698
1.53333
2.78545
0.144134
2.1967
-1.43062
0.432998
-2.33852
-1.50983
-2.07881
-2.61216
-0.722631
-2.28131
1.10362
-0.696944
2.41276
1.22711
2.46636
-1.92234
-2.03809
-0.961894
-1.23733
0.457052
0.156665
1.67679
1.47521
2.12204
2.11072
1.59909
1.75947
0.281751
0.512571
-1.26263